 vasp.5.4.4.18Apr17-6-g9f103f2a35 (build Jan 25 2019 22:30:10) complex          
  
 executed on             LinuxIFC date 2021.08.09  14:08:21
 running on   32 total cores
 distrk:  each k-point on   32 cores,    1 groups
 distr:  one band on NCORES_PER_BAND=   4 cores,    8 groups


--------------------------------------------------------------------------------------------------------


 INCAR:
 POTCAR:    PAW_PBE Ni_pv 06Sep2000               
 POTCAR:    PAW_PBE O 08Apr2002                   
 POTCAR:    PAW_PBE W 08Apr2002                   
 POTCAR:    PAW_PBE Cu_pv 06Sep2000               
 POTCAR:    PAW_PBE Ni_pv 06Sep2000               
   VRHFIN =Ni:                                                                  
   LEXCH  = PE                                                                  
   EATOM  =  3501.1230 eV,  257.3253 Ry                                         
                                                                                
   TITEL  = PAW_PBE Ni_pv 06Sep2000                                             
   LULTRA =        F    use ultrasoft PP ?                                      
   IUNSCR =        1    unscreen: 0-lin 1-nonlin 2-no                           
   RPACOR =    1.500    partial core radius                                     
   POMASS =   58.690; ZVAL   =   16.000    mass and valenz                      
   RCORE  =    2.000    outmost cutoff radius                                   
   RWIGS  =    2.000; RWIGS  =    1.058    wigner-seitz radius (au A)           
   ENMAX  =  367.986; ENMIN  =  275.989 eV                                      
   RCLOC  =    1.301    cutoff for local pot                                    
   LCOR   =        T    correct aug charges                                     
   LPAW   =        T    paw PP                                                  
   EAUG   =  703.443                                                            
   DEXC   =    0.000                                                            
   RMAX   =    2.041    core radius for proj-oper                               
   RAUG   =    1.300    factor for augmentation sphere                          
   RDEP   =    2.103    radius for radial grids                                 
   RDEPT  =    1.618    core radius for aug-charge                              
                                                                                
   Atomic configuration                                                         
    8 entries                                                                   
     n  l   j            E        occ.                                          
     1  0  0.50     -8206.4253   2.0000                                         
     2  0  0.50      -976.1748   2.0000                                         
     2  1  1.50      -839.0571   6.0000                                         
     3  0  0.50      -105.9991   2.0000                                         
     3  1  1.50       -66.4603   6.0000                                         
     3  2  2.50        -4.6458   9.0000                                         
     4  0  0.50        -4.4926   1.0000                                         
     4  3  2.50        -1.3606   0.0000                                         
   Description                                                                  
     l       E           TYP  RCUT    TYP  RCUT                                 
     1    -66.4602962     23  1.700                                             
     1     -1.3605826     23  1.700                                             
     2     -4.6457867     23  2.000                                             
     2     -6.0063693     23  2.000                                             
     0     -4.4925576     23  1.900                                             
     0     16.3626226     23  1.900                                             
  local pseudopotential read in
  partial core-charges read in
  partial kinetic energy density read in
  atomic valenz-charges read in
  non local Contribution for L=           1  read in
    real space projection operators read in
  non local Contribution for L=           1  read in
    real space projection operators read in
  non local Contribution for L=           2  read in
    real space projection operators read in
  non local Contribution for L=           2  read in
    real space projection operators read in
  non local Contribution for L=           0  read in
    real space projection operators read in
  non local Contribution for L=           0  read in
    real space projection operators read in
    PAW grid and wavefunctions read in
 
   number of l-projection  operators is LMAX  =           6
   number of lm-projection operators is LMMAX =          18
 
 POTCAR:    PAW_PBE O 08Apr2002                   
   VRHFIN =O: s2p4                                                              
   LEXCH  = PE                                                                  
   EATOM  =   432.3788 eV,   31.7789 Ry                                         
                                                                                
   TITEL  = PAW_PBE O 08Apr2002                                                 
   LULTRA =        F    use ultrasoft PP ?                                      
   IUNSCR =        1    unscreen: 0-lin 1-nonlin 2-no                           
   RPACOR =    1.200    partial core radius                                     
   POMASS =   16.000; ZVAL   =    6.000    mass and valenz                      
   RCORE  =    1.520    outmost cutoff radius                                   
   RWIGS  =    1.550; RWIGS  =    0.820    wigner-seitz radius (au A)           
   ENMAX  =  400.000; ENMIN  =  300.000 eV                                      
   ICORE  =        2    local potential                                         
   LCOR   =        T    correct aug charges                                     
   LPAW   =        T    paw PP                                                  
   EAUG   =  605.392                                                            
   DEXC   =    0.000                                                            
   RMAX   =    1.553    core radius for proj-oper                               
   RAUG   =    1.300    factor for augmentation sphere                          
   RDEP   =    1.550    radius for radial grids                                 
   RDEPT  =    1.329    core radius for aug-charge                              
                                                                                
   Atomic configuration                                                         
    4 entries                                                                   
     n  l   j            E        occ.                                          
     1  0  0.50      -514.6923   2.0000                                         
     2  0  0.50       -23.9615   2.0000                                         
     2  1  0.50        -9.0305   4.0000                                         
     3  2  1.50        -9.5241   0.0000                                         
   Description                                                                  
     l       E           TYP  RCUT    TYP  RCUT                                 
     0    -23.9615318     23  1.200                                             
     0     -9.5240782     23  1.200                                             
     1     -9.0304911     23  1.520                                             
     1      8.1634956     23  1.520                                             
     2     -9.5240782      7  1.500                                             
  local pseudopotential read in
  partial core-charges read in
  partial kinetic energy density read in
  kinetic energy density of atom read in
  atomic valenz-charges read in
  non local Contribution for L=           0  read in
    real space projection operators read in
  non local Contribution for L=           0  read in
    real space projection operators read in
  non local Contribution for L=           1  read in
    real space projection operators read in
  non local Contribution for L=           1  read in
    real space projection operators read in
    PAW grid and wavefunctions read in
 
   number of l-projection  operators is LMAX  =           4
   number of lm-projection operators is LMMAX =           8
 
 POTCAR:    PAW_PBE W 08Apr2002                   
   VRHFIN =W : 6s5d                                                             
   LEXCH  = PE                                                                  
   EATOM  =   204.6103 eV,   15.0384 Ry                                         
                                                                                
   TITEL  = PAW_PBE W 08Apr2002                                                 
   LULTRA =        F    use ultrasoft PP ?                                      
   IUNSCR =        1    unscreen: 0-lin 1-nonlin 2-no                           
   RPACOR =    2.330    partial core radius                                     
   POMASS =  183.850; ZVAL   =    6.000    mass and valenz                      
   RCORE  =    2.750    outmost cutoff radius                                   
   RWIGS  =    2.750; RWIGS  =    1.455    wigner-seitz radius (au A)           
   ENMAX  =  223.057; ENMIN  =  167.293 eV                                      
   RCLOC  =    2.147    cutoff for local pot                                    
   LCOR   =        T    correct aug charges                                     
   LPAW   =        T    paw PP                                                  
   EAUG   =  373.438                                                            
   DEXC   =    0.000                                                            
   RMAX   =    2.801    core radius for proj-oper                               
   RAUG   =    1.300    factor for augmentation sphere                          
   RDEP   =    2.886    radius for radial grids                                 
   RDEPT  =    2.230    core radius for aug-charge                              
                                                                                
   Atomic configuration                                                         
   16 entries                                                                   
     n  l   j            E        occ.                                          
     1  0  0.50    -69465.5836   2.0000                                         
     2  0  0.50    -11986.2642   2.0000                                         
     2  1  1.50    -10479.8616   6.0000                                         
     3  0  0.50     -2759.0758   2.0000                                         
     3  1  1.50     -2313.1857   6.0000                                         
     3  2  2.50     -1801.1185  10.0000                                         
     4  0  0.50      -567.6791   2.0000                                         
     4  1  1.50      -421.4694   6.0000                                         
     4  2  2.50      -236.3473  10.0000                                         
     4  3  3.50       -31.2666  14.0000                                         
     5  0  0.50       -77.1085   2.0000                                         
     5  1  1.50       -41.3856   6.0000                                         
     5  2  2.50        -3.3185   5.0000                                         
     6  0  0.50        -5.1438   1.0000                                         
     6  1  0.50        -3.8096   0.0000                                         
     5  3  2.50        -1.3606   0.0000                                         
   Description                                                                  
     l       E           TYP  RCUT    TYP  RCUT                                 
     2     -3.3185288     23  2.500                                             
     2     -1.5965414     23  2.500                                             
     0     -5.1438054     23  2.500                                             
     0      4.9117504     23  2.500                                             
     1      2.7211652     23  2.750                                             
     1     27.2116520     23  2.750                                             
  local pseudopotential read in
  partial core-charges read in
  partial kinetic energy density read in
  atomic valenz-charges read in
  non local Contribution for L=           2  read in
    real space projection operators read in
  non local Contribution for L=           2  read in
    real space projection operators read in
  non local Contribution for L=           0  read in
    real space projection operators read in
  non local Contribution for L=           0  read in
    real space projection operators read in
  non local Contribution for L=           1  read in
    real space projection operators read in
  non local Contribution for L=           1  read in
    real space projection operators read in
    PAW grid and wavefunctions read in
 
   number of l-projection  operators is LMAX  =           6
   number of lm-projection operators is LMMAX =          18
 
 POTCAR:    PAW_PBE Cu_pv 06Sep2000               
   VRHFIN =Cu: d10 p1                                                           
   LEXCH  = PE                                                                  
   EATOM  =  4120.1201 eV,  302.8203 Ry                                         
                                                                                
   TITEL  = PAW_PBE Cu_pv 06Sep2000                                             
   LULTRA =        F    use ultrasoft PP ?                                      
   IUNSCR =        1    unscreen: 0-lin 1-nonlin 2-no                           
   RPACOR =    1.500    partial core radius                                     
   POMASS =   63.546; ZVAL   =   17.000    mass and valenz                      
   RCORE  =    2.000    outmost cutoff radius                                   
   RWIGS  =    2.000; RWIGS  =    1.058    wigner-seitz radius (au A)           
   ENMAX  =  368.648; ENMIN  =  276.486 eV                                      
   RCLOC  =    1.304    cutoff for local pot                                    
   LCOR   =        T    correct aug charges                                     
   LPAW   =        T    paw PP                                                  
   EAUG   =  758.233                                                            
   DEXC   =    0.000                                                            
   RMAX   =    2.046    core radius for proj-oper                               
   RAUG   =    1.300    factor for augmentation sphere                          
   RDEP   =    2.025    radius for radial grids                                 
   RDEPT  =    1.558    core radius for aug-charge                              
                                                                                
   Atomic configuration                                                         
    8 entries                                                                   
     n  l   j            E        occ.                                          
     1  0  0.50     -8850.2467   2.0000                                         
     2  0  0.50     -1062.3498   2.0000                                         
     2  1  1.50      -916.8226   6.0000                                         
     3  0  0.50      -114.6929   2.0000                                         
     3  1  1.50       -72.1325   6.0000                                         
     3  2  2.50        -5.0394  10.0000                                         
     4  0  0.50        -4.6097   1.0000                                         
     4  3  2.50        -1.3606   0.0000                                         
   Description                                                                  
     l       E           TYP  RCUT    TYP  RCUT                                 
     1    -72.1324777     23  1.700                                             
     1     -1.3605826     23  1.700                                             
     2     -5.0393776     23  2.000                                             
     2     -6.3999602     23  2.000                                             
     0     -4.6097062     23  1.800                                             
     0     14.1620818     23  1.800                                             
  local pseudopotential read in
  partial core-charges read in
  partial kinetic energy density read in
  atomic valenz-charges read in
  non local Contribution for L=           1  read in
    real space projection operators read in
  non local Contribution for L=           1  read in
    real space projection operators read in
  non local Contribution for L=           2  read in
    real space projection operators read in
  non local Contribution for L=           2  read in
    real space projection operators read in
  non local Contribution for L=           0  read in
    real space projection operators read in
  non local Contribution for L=           0  read in
    real space projection operators read in
    PAW grid and wavefunctions read in
 
   number of l-projection  operators is LMAX  =           6
   number of lm-projection operators is LMMAX =          18
 
 Optimization of the real space projectors (new method)

 maximal supplied QI-value         = 18.90
 optimisation between [QCUT,QGAM] = [ 11.34, 22.87] = [ 36.00,146.41] Ry 
 Optimized for a Real-space Cutoff    1.35 Angstroem

   l    n(q)    QCUT    max X(q) W(low)/X(q) W(high)/X(q)  e(spline) 
   1      9    11.338     2.836    0.21E-04    0.44E-04    0.96E-07
   1      9    11.338     4.023    0.81E-04    0.11E-03    0.22E-06
   2      8    11.338    73.368    0.36E-03    0.40E-03    0.33E-06
   2      8    11.338    69.010    0.37E-03    0.41E-03    0.34E-06
   0      9    11.338    54.797    0.66E-04    0.74E-04    0.73E-07
   0      9    11.338    24.266    0.52E-04    0.65E-04    0.65E-07
 Optimization of the real space projectors (new method)

 maximal supplied QI-value         = 24.76
 optimisation between [QCUT,QGAM] = [ 11.39, 22.77] = [ 36.31,145.25] Ry 
 Optimized for a Real-space Cutoff    1.00 Angstroem

   l    n(q)    QCUT    max X(q) W(low)/X(q) W(high)/X(q)  e(spline) 
   0      7    11.387    20.381    0.39E-03    0.13E-02    0.15E-06
   0      7    11.387    15.268    0.42E-03    0.14E-02    0.17E-06
   1      6    11.387     5.964    0.41E-03    0.11E-02    0.17E-06
   1      6    11.387     5.382    0.39E-03    0.87E-03    0.15E-06
 Optimization of the real space projectors (new method)

 maximal supplied QI-value         = 13.61
 optimisation between [QCUT,QGAM] = [ 11.43, 22.86] = [ 36.58,146.31] Ry 
 Optimized for a Real-space Cutoff    1.56 Angstroem

   l    n(q)    QCUT    max X(q) W(low)/X(q) W(high)/X(q)  e(spline) 
   2     10    11.429   130.855    0.22E-03    0.64E-03    0.11E-05
   2     10    11.429   114.007    0.22E-03    0.64E-03    0.11E-05
   0     11    11.429    84.709    0.39E-04    0.67E-04    0.23E-06
   0     11    11.429    49.163    0.35E-04    0.62E-04    0.21E-06
   1     10    11.429    15.765    0.84E-04    0.15E-03    0.24E-06
   1     10    11.429    10.638    0.58E-04    0.12E-03    0.19E-06
 Optimization of the real space projectors (new method)

 maximal supplied QI-value         = 18.90
 optimisation between [QCUT,QGAM] = [ 11.34, 22.87] = [ 36.00,146.41] Ry 
 Optimized for a Real-space Cutoff    1.35 Angstroem

   l    n(q)    QCUT    max X(q) W(low)/X(q) W(high)/X(q)  e(spline) 
   1      9    11.338     3.172    0.27E-04    0.54E-04    0.11E-06
   1      9    11.338     4.083    0.75E-04    0.10E-03    0.21E-06
   2      8    11.338    65.342    0.34E-03    0.39E-03    0.31E-06
   2      8    11.338    61.381    0.35E-03    0.40E-03    0.31E-06
   0      9    11.338    65.742    0.63E-04    0.53E-04    0.82E-07
   0      9    11.338    30.431    0.56E-04    0.48E-04    0.75E-07
  PAW_PBE Ni_pv 06Sep2000               :
 energy of atom  1       EATOM=-3501.1230
 kinetic energy error for atom=    0.0690 (will be added to EATOM!!)
  PAW_PBE O 08Apr2002                   :
 energy of atom  2       EATOM= -432.3788
 kinetic energy error for atom=    0.0224 (will be added to EATOM!!)
  PAW_PBE W 08Apr2002                   :
 energy of atom  3       EATOM= -204.6103
 kinetic energy error for atom=    0.0017 (will be added to EATOM!!)
  PAW_PBE Cu_pv 06Sep2000               :
 energy of atom  4       EATOM=-4120.1201
 kinetic energy error for atom=    0.0655 (will be added to EATOM!!)
 
 
 POSCAR: Ni O4 W                                 
  positions in direct lattice
  velocities in cartesian coordinates
 exchange correlation table for  LEXCH =        8
   RHO(1)=    0.500       N(1)  =     2000
   RHO(2)=  100.500       N(2)  =     4000
 


--------------------------------------------------------------------------------------------------------


 ion  position               nearest neighbor table
   1  0.250  0.650  0.125-  27 1.97  36 1.98  31 2.02  19 2.02  11 2.05  23 2.05
   2  0.750  0.659  0.122-  38 1.95  29 1.95  13 2.01  25 2.01  21 2.07  33 2.09
   3  0.750  0.653  0.627-  30 1.98  22 1.99  37 1.99  34 1.99  14 2.07  26 2.08
   4  0.250  0.347  0.373-  23 1.98  15 1.99  32 1.99  35 1.99   7 2.07  27 2.08
   5  0.750  0.350  0.875-  26 1.97  33 1.98  38 2.02  18 2.02  10 2.05  30 2.05
   6  0.250  0.341  0.878-  31 1.95  24 1.95   8 2.01  28 2.01  16 2.07  36 2.09
   7  0.110  0.112  0.464-  40 1.95   4 2.07  43 2.10
   8  0.113  0.110  0.963-  39 1.95   6 2.01  44 2.09
   9  0.615  0.108  0.467-  42 1.91  48 2.05  45 2.10
  10  0.612  0.113  0.964-  41 1.93   5 2.05  46 2.13
  11  0.388  0.887  0.036-  46 1.93   1 2.05  41 2.13
  12  0.385  0.892  0.533-  45 1.91  47 2.05  42 2.10
  13  0.887  0.890  0.037-  44 1.95   2 2.01  39 2.10
  14  0.890  0.888  0.536-  43 1.95   3 2.07  40 2.10
  15  0.389  0.121  0.289-  41 1.96   4 1.99  45 2.12
  16  0.390  0.102  0.786-  42 1.96  46 2.06   6 2.07
  17  0.890  0.112  0.283-  39 1.91  48 2.03  43 2.11
  18  0.883  0.111  0.787-  40 1.96   5 2.02  44 2.11
  19  0.117  0.889  0.213-  43 1.96   1 2.02  39 2.11
  20  0.110  0.888  0.717-  44 1.91  47 2.03  40 2.11
  21  0.610  0.898  0.214-  45 1.96  41 2.06   2 2.07
  22  0.611  0.879  0.711-  46 1.96   3 1.99  42 2.12
  23  0.133  0.377  0.205-  39 1.85   4 1.98   1 2.05
  24  0.135  0.365  0.711-  40 1.83   6 1.95  47 2.15
  25  0.629  0.393  0.195-  41 1.82   2 2.01  48 2.10
  26  0.632  0.374  0.707-  42 1.85   5 1.97   3 2.08
  27  0.368  0.626  0.293-  45 1.85   1 1.97   4 2.08
  28  0.371  0.607  0.805-  46 1.82   6 2.01  47 2.10
  29  0.865  0.635  0.289-  43 1.83   2 1.95  48 2.15
  30  0.867  0.623  0.795-  44 1.85   3 1.98   5 2.05
  31  0.362  0.376  0.045-  41 1.86   6 1.95   1 2.02
  32  0.369  0.371  0.542-  42 1.83   4 1.99  47 2.12
  33  0.869  0.377  0.043-  39 1.84   5 1.98   2 2.09
  34  0.871  0.390  0.555-  40 1.83   3 1.99  48 2.11
  35  0.129  0.610  0.445-  43 1.83   4 1.99  47 2.11
  36  0.131  0.623  0.957-  44 1.84   1 1.98   6 2.09
  37  0.631  0.629  0.458-  45 1.83   3 1.99  48 2.12
  38  0.638  0.624  0.955-  46 1.86   2 1.95   5 2.02
  39  0.000  0.174  0.125-  33 1.84  23 1.85  17 1.91   8 1.95  13 2.10  19 2.11  44 3.16  43 3.16

  40  1.000  0.175  0.627-  34 1.83  24 1.83   7 1.95  18 1.96  14 2.10  20 2.11  44 3.16  43 3.20

  41  0.502  0.178  0.125-  25 1.82  31 1.86  10 1.93  15 1.96  21 2.06  11 2.13  46 3.18  45 3.19

  42  0.501  0.172  0.624-  32 1.83  26 1.85   9 1.91  16 1.96  12 2.10  22 2.12  45 3.12  46 3.19

  43  0.000  0.825  0.373-  35 1.83  29 1.83  14 1.95  19 1.96   7 2.10  17 2.11  39 3.16  40 3.20

  44  1.000  0.826  0.875-  36 1.84  30 1.85  20 1.91  13 1.95   8 2.09  18 2.11  39 3.16  40 3.16

  45  0.499  0.828  0.376-  37 1.83  27 1.85  12 1.91  21 1.96   9 2.10  15 2.12  42 3.12  41 3.19

  46  0.498  0.822  0.875-  28 1.82  38 1.86  11 1.93  22 1.96  16 2.06  10 2.13  41 3.18  42 3.19

  47  0.249  0.658  0.626-  20 2.03  12 2.05  28 2.10  35 2.11  32 2.12  24 2.15
  48  0.751  0.342  0.374-  17 2.03   9 2.05  25 2.10  34 2.11  37 2.12  29 2.15
 

IMPORTANT INFORMATION: All symmetrisations will be switched off!
NOSYMM: (Re-)initialisation of all symmetry stuff for point group C_1.

 
 
 KPOINTS: Automatic mesh                          

Automatic generation of k-mesh.
Space group operators:
 irot       det(A)        alpha          n_x          n_y          n_z        tau_x        tau_y        tau_z
    1     1.000000     0.000000     1.000000     0.000000     0.000000     0.000000     0.000000     0.000000
 
 Subroutine IBZKPT returns following result:
 ===========================================
 
 Found     68 irreducible k-points:
 
 Following reciprocal coordinates:
            Coordinates               Weight
  0.000000  0.000000  0.000000      1.000000
  0.250000  0.000000  0.000000      2.000000
  0.500000  0.000000  0.000000      1.000000
  0.000000  0.125000  0.000000      2.000000
  0.250000  0.125000  0.000000      2.000000
  0.500000  0.125000  0.000000      2.000000
 -0.250000  0.125000 -0.000000      2.000000
  0.000000  0.250000  0.000000      2.000000
  0.250000  0.250000  0.000000      2.000000
  0.500000  0.250000  0.000000      2.000000
 -0.250000  0.250000 -0.000000      2.000000
  0.000000  0.375000  0.000000      2.000000
  0.250000  0.375000  0.000000      2.000000
  0.500000  0.375000  0.000000      2.000000
 -0.250000  0.375000 -0.000000      2.000000
  0.000000  0.500000  0.000000      1.000000
  0.250000  0.500000  0.000000      2.000000
  0.500000  0.500000  0.000000      1.000000
 -0.000000 -0.000000  0.250000      2.000000
  0.250000 -0.000000  0.250000      2.000000
  0.500000  0.000000  0.250000      2.000000
 -0.250000 -0.000000  0.250000      2.000000
  0.000000  0.125000  0.250000      2.000000
  0.250000  0.125000  0.250000      2.000000
  0.500000  0.125000  0.250000      2.000000
 -0.250000  0.125000  0.250000      2.000000
  0.000000  0.250000  0.250000      2.000000
  0.250000  0.250000  0.250000      2.000000
  0.500000  0.250000  0.250000      2.000000
 -0.250000  0.250000  0.250000      2.000000
  0.000000  0.375000  0.250000      2.000000
  0.250000  0.375000  0.250000      2.000000
  0.500000  0.375000  0.250000      2.000000
 -0.250000  0.375000  0.250000      2.000000
 -0.000000  0.500000  0.250000      2.000000
  0.250000  0.500000  0.250000      2.000000
  0.500000  0.500000  0.250000      2.000000
 -0.250000  0.500000  0.250000      2.000000
 -0.000000 -0.375000  0.250000      2.000000
  0.250000 -0.375000  0.250000      2.000000
  0.500000 -0.375000  0.250000      2.000000
 -0.250000 -0.375000  0.250000      2.000000
 -0.000000 -0.250000  0.250000      2.000000
  0.250000 -0.250000  0.250000      2.000000
  0.500000 -0.250000  0.250000      2.000000
 -0.250000 -0.250000  0.250000      2.000000
 -0.000000 -0.125000  0.250000      2.000000
  0.250000 -0.125000  0.250000      2.000000
  0.500000 -0.125000  0.250000      2.000000
 -0.250000 -0.125000  0.250000      2.000000
 -0.000000 -0.000000  0.500000      1.000000
  0.250000 -0.000000  0.500000      2.000000
  0.500000 -0.000000  0.500000      1.000000
 -0.000000  0.125000  0.500000      2.000000
  0.250000  0.125000  0.500000      2.000000
  0.500000  0.125000  0.500000      2.000000
 -0.250000  0.125000  0.500000      2.000000
  0.000000  0.250000  0.500000      2.000000
  0.250000  0.250000  0.500000      2.000000
  0.500000  0.250000  0.500000      2.000000
 -0.250000  0.250000  0.500000      2.000000
  0.000000  0.375000  0.500000      2.000000
  0.250000  0.375000  0.500000      2.000000
  0.500000  0.375000  0.500000      2.000000
 -0.250000  0.375000  0.500000      2.000000
  0.000000  0.500000  0.500000      1.000000
  0.250000  0.500000  0.500000      2.000000
  0.500000  0.500000  0.500000      1.000000
 
 Following cartesian coordinates:
            Coordinates               Weight
  0.000000  0.000000  0.000000      1.000000
  0.027403 -0.000063  0.000183      2.000000
  0.054807 -0.000126  0.000366      1.000000
 -0.000051  0.022048  0.000041      2.000000
  0.027352  0.021985  0.000224      2.000000
  0.054756  0.021923  0.000407      2.000000
 -0.027454  0.022111 -0.000142      2.000000
 -0.000102  0.044096  0.000082      2.000000
  0.027301  0.044034  0.000265      2.000000
  0.054705  0.043971  0.000448      2.000000
 -0.027505  0.044159 -0.000101      2.000000
 -0.000153  0.066145  0.000123      2.000000
  0.027250  0.066082  0.000306      2.000000
  0.054654  0.066019  0.000489      2.000000
 -0.027556  0.066207 -0.000060      2.000000
 -0.000204  0.088193  0.000164      1.000000
  0.027200  0.088130  0.000347      2.000000
  0.054603  0.088067  0.000530      1.000000
  0.000140  0.000047  0.025232      2.000000
  0.027544 -0.000016  0.025415      2.000000
  0.054947 -0.000078  0.025598      2.000000
 -0.027263  0.000110  0.025049      2.000000
  0.000089  0.022095  0.025273      2.000000
  0.027493  0.022033  0.025456      2.000000
  0.054896  0.021970  0.025639      2.000000
 -0.027314  0.022158  0.025091      2.000000
  0.000038  0.044144  0.025315      2.000000
  0.027442  0.044081  0.025497      2.000000
  0.054845  0.044018  0.025680      2.000000
 -0.027365  0.044206  0.025132      2.000000
 -0.000013  0.066192  0.025356      2.000000
  0.027391  0.066129  0.025538      2.000000
  0.054794  0.066066  0.025721      2.000000
 -0.027416  0.066254  0.025173      2.000000
 -0.000064  0.088240  0.025397      2.000000
  0.027340  0.088177  0.025580      2.000000
  0.054743  0.088114  0.025762      2.000000
 -0.027467  0.088303  0.025214      2.000000
  0.000293 -0.066097  0.025109      2.000000
  0.027696 -0.066160  0.025292      2.000000
  0.055100 -0.066223  0.025475      2.000000
 -0.027110 -0.066035  0.024926      2.000000
  0.000242 -0.044049  0.025150      2.000000
  0.027646 -0.044112  0.025333      2.000000
  0.055049 -0.044175  0.025516      2.000000
 -0.027161 -0.043986  0.024967      2.000000
  0.000191 -0.022001  0.025191      2.000000
  0.027595 -0.022064  0.025374      2.000000
  0.054998 -0.022127  0.025557      2.000000
 -0.027212 -0.021938  0.025008      2.000000
  0.000281  0.000094  0.050465      1.000000
  0.027684  0.000032  0.050648      2.000000
  0.055087 -0.000031  0.050831      1.000000
  0.000230  0.022142  0.050506      2.000000
  0.027633  0.022080  0.050689      2.000000
  0.055036  0.022017  0.050872      2.000000
 -0.027174  0.022205  0.050323      2.000000
  0.000179  0.044191  0.050547      2.000000
  0.027582  0.044128  0.050730      2.000000
  0.054985  0.044065  0.050913      2.000000
 -0.027225  0.044253  0.050364      2.000000
  0.000128  0.066239  0.050588      2.000000
  0.027531  0.066176  0.050771      2.000000
  0.054934  0.066113  0.050954      2.000000
 -0.027276  0.066302  0.050405      2.000000
  0.000077  0.088287  0.050629      1.000000
  0.027480  0.088224  0.050812      2.000000
  0.054883  0.088161  0.050995      1.000000
 
 TETIRR: Found    384 inequivalent tetrahedra from      768


--------------------------------------------------------------------------------------------------------




 Dimension of arrays:
   k-points           NKPTS =     68   k-points in BZ     NKDIM =     68   number of bands    NBANDS=    224
   number of dos      NEDOS =   2001   number of ions     NIONS =     48
   non local maximal  LDIM  =      6   non local SUM 2l+1 LMDIM =     18
   total plane-waves  NPLWV =  86400
   max r-space proj   IRMAX =   2752   max aug-charges    IRDMAX=   9822
   dimension x,y,z NGX =    50 NGY =   32 NGZ =   54
   dimension x,y,z NGXF=   100 NGYF=   64 NGZF=  108
   support grid    NGXF=   100 NGYF=   64 NGZF=  108
   ions per type =               6  32   8   2
   NGX,Y,Z   is equivalent  to a cutoff of   9.11,  9.38,  9.06 a.u.
   NGXF,Y,Z  is equivalent  to a cutoff of  18.22, 18.77, 18.12 a.u.

 SYSTEM =  NiWO4                                   
 POSCAR =  Ni O4 W                                 

 Startparameter for this run:
   NWRITE =      2    write-flag & timer
   PREC   = normal    normal or accurate (medium, high low for compatibility)
   ISTART =      0    job   : 0-new  1-cont  2-samecut
   ICHARG =      2    charge: 1-file 2-atom 10-const
   ISPIN  =      1    spin polarized calculation?
   LNONCOLLINEAR =      F non collinear calculations
   LSORBIT =      F    spin-orbit coupling
   INIWAV =      1    electr: 0-lowe 1-rand  2-diag
   LASPH  =      F    aspherical Exc in radial PAW
   METAGGA=      F    non-selfconsistent MetaGGA calc.

 Electronic Relaxation 1
   ENCUT  =  500.0 eV  36.75 Ry    6.06 a.u.  16.63 10.34 18.07*2*pi/ulx,y,z
   ENINI  =  500.0     initial cutoff
   ENAUG  =  758.2 eV  augmentation charge cutoff
   NELM   =    400;   NELMIN=  2; NELMDL= -5     # of ELM steps 
   EDIFF  = 0.1E-04   stopping-criterion for ELM
   LREAL  =      T    real-space projection
   NLSPLINE    = F    spline interpolate recip. space projectors
   LCOMPAT=      F    compatible to vasp.4.4
   GGA_COMPAT  = T    GGA compatible to vasp.4.4-vasp.4.6
   LMAXPAW     = -100 max onsite density
   LMAXMIX     =    4 max onsite mixed and CHGCAR
   VOSKOWN=      0    Vosko Wilk Nusair interpolation
   ROPT   =   -0.00050  -0.00050  -0.00050  -0.00050
 Ionic relaxation
   EDIFFG = 0.1E-03   stopping-criterion for IOM
   NSW    =      0    number of steps for IOM
   NBLOCK =      1;   KBLOCK =      1    inner block; outer block 
   IBRION =     -1    ionic relax: 0-MD 1-quasi-New 2-CG
   NFREE  =      0    steps in history (QN), initial steepest desc. (CG)
   ISIF   =      2    stress and relaxation
   IWAVPR =     10    prediction:  0-non 1-charg 2-wave 3-comb
   ISYM   =      0    0-nonsym 1-usesym 2-fastsym
   LCORR  =      T    Harris-Foulkes like correction to forces

   POTIM  = 0.5000    time-step for ionic-motion
   TEIN   =    0.0    initial temperature
   TEBEG  =    0.0;   TEEND  =   0.0 temperature during run
   SMASS  =  -3.00    Nose mass-parameter (am)
   estimated Nose-frequenzy (Omega)   =  0.10E-29 period in steps =****** mass=  -0.190E-26a.u.
   SCALEE = 1.0000    scale energy and forces
   NPACO  =    256;   APACO  = 16.0  distance and # of slots for P.C.
   PSTRESS=    0.0 pullay stress

  Mass of Ions in am
   POMASS =  58.69 16.00183.85 63.55
  Ionic Valenz
   ZVAL   =  16.00  6.00  6.00 17.00
  Atomic Wigner-Seitz radii
   RWIGS  =  -1.00 -1.00 -1.00 -1.00
  virtual crystal weights 
   VCA    =   1.00  1.00  1.00  1.00
   NELECT =     370.0000    total number of electrons
   NUPDOWN=      -1.0000    fix difference up-down

 DOS related values:
   EMIN   =  10.00;   EMAX   =-10.00  energy-range for DOS
   EFERMI =   0.00
   ISMEAR =    -5;   SIGMA  =   0.10  broadening in eV -4-tet -1-fermi 0-gaus

 Electronic relaxation 2 (details)
   IALGO  =     38    algorithm
   LDIAG  =      T    sub-space diagonalisation (order eigenvalues)
   LSUBROT=      F    optimize rotation matrix (better conditioning)
   TURBO    =      0    0=normal 1=particle mesh
   IRESTART =      0    0=no restart 2=restart with 2 vectors
   NREBOOT  =      0    no. of reboots
   NMIN     =      0    reboot dimension
   EREF     =   0.00    reference energy to select bands
   IMIX   =      4    mixing-type and parameters
     AMIX     =   0.40;   BMIX     =  1.00
     AMIX_MAG =   1.60;   BMIX_MAG =  1.00
     AMIN     =   0.10
     WC   =   100.;   INIMIX=   1;  MIXPRE=   1;  MAXMIX= -45

 Intra band minimization:
   WEIMIN = 0.0000     energy-eigenvalue tresh-hold
   EBREAK =  0.11E-07  absolut break condition
   DEPER  =   0.30     relativ break condition  

   TIME   =   0.40     timestep for ELM

  volume/ion in A,a.u.               =      10.68        72.05
  Fermi-wavevector in a.u.,A,eV,Ry     =   1.468645  2.775337 29.346660  2.156919
  Thomas-Fermi vector in A             =   2.584118
 
 Write flags
   LWAVE        =      T    write WAVECAR
   LDOWNSAMPLE  =      F    k-point downsampling of WAVECAR
   LCHARG       =      T    write CHGCAR
   LVTOT        =      F    write LOCPOT, total local potential
   LVHAR        =      F    write LOCPOT, Hartree potential only
   LELF         =      F    write electronic localiz. function (ELF)
   LORBIT       =     11    0 simple, 1 ext, 2 COOP (PROOUT), +10 PAW based schemes


 Dipole corrections
   LMONO  =      F    monopole corrections only (constant potential shift)
   LDIPOL =      F    correct potential (dipole corrections)
   IDIPOL =      0    1-x, 2-y, 3-z, 4-all directions 
   EPSILON=  1.0000000 bulk dielectric constant

 Exchange correlation treatment:
   GGA     =    PE    GGA type
   LEXCH   =     8    internal setting for exchange type
   VOSKOWN=      0    Vosko Wilk Nusair interpolation
   LHFCALC =     F    Hartree Fock is set to
   LHFONE  =     F    Hartree Fock one center treatment
   AEXX    =    0.0000 exact exchange contribution

 Linear response parameters
   LEPSILON=     F    determine dielectric tensor
   LRPA    =     F    only Hartree local field effects (RPA)
   LNABLA  =     F    use nabla operator in PAW spheres
   LVEL    =     F    velocity operator in full k-point grid
   LINTERFAST=   F  fast interpolation
   KINTER  =     0    interpolate to denser k-point grid
   CSHIFT  =0.1000    complex shift for real part using Kramers Kronig
   OMEGAMAX=  -1.0    maximum frequency
   DEG_THRESHOLD= 0.2000000E-02 threshold for treating states as degnerate
   RTIME   =   -0.100 relaxation time in fs
  (WPLASMAI=    0.000 imaginary part of plasma frequency in eV, 0.658/RTIME)
   DFIELD  = 0.0000000 0.0000000 0.0000000 field for delta impulse in time
 
 Orbital magnetization related:
   ORBITALMAG=     F  switch on orbital magnetization
   LCHIMAG   =     F  perturbation theory with respect to B field
   DQ        =  0.001000  dq finite difference perturbation B field
   LLRAUG    =     F  two centre corrections for induced B field



--------------------------------------------------------------------------------------------------------


 Static calculation
 charge density and potential will be updated during run
 non-spin polarized calculation
 Variant of blocked Davidson
 Davidson routine will perform the subspace rotation
 perform sub-space diagonalisation
    after iterative eigenvector-optimisation
 modified Broyden-mixing scheme, WC =      100.0
 initial mixing is a Kerker type mixing with AMIX =  0.4000 and BMIX =      1.0000
 Hartree-type preconditioning will be used
 using additional bands           39
 real space projection scheme for non local part
 use partial core corrections
 calculate Harris-corrections to forces 
   (improved forces if not selfconsistent)
 use gradient corrections 
 use of overlap-Matrix (Vanderbilt PP)
 Fermi weights with tetrahedron method with Bloechl corrections


--------------------------------------------------------------------------------------------------------


  energy-cutoff  :      500.00
  volume of cell :      512.48
      direct lattice vectors                 reciprocal lattice vectors
     9.123367253  0.021177726 -0.050763858     0.109613307 -0.000251110  0.000731620
     0.013059164  5.669451047 -0.010666169    -0.000407609  0.176385477  0.000328522
    -0.066176164 -0.018607392  9.908304869     0.000561150  0.000188590  0.100929539

  length of vectors
     9.123533060  5.669476121  9.908543329     0.109616036  0.176386254  0.100931275


 
 k-points in units of 2pi/SCALE and weight: Automatic mesh                          
   0.00000000  0.00000000  0.00000000       0.008
   0.02740333 -0.00006278  0.00018291       0.016
   0.05480665 -0.00012555  0.00036581       0.008
  -0.00005095  0.02204818  0.00004107       0.016
   0.02735238  0.02198541  0.00022397       0.016
   0.05475570  0.02192263  0.00040688       0.016
  -0.02745428  0.02211096 -0.00014184       0.016
  -0.00010190  0.04409637  0.00008213       0.016
   0.02730142  0.04403359  0.00026504       0.016
   0.05470475  0.04397081  0.00044794       0.016
  -0.02750523  0.04415915 -0.00010077       0.016
  -0.00015285  0.06614455  0.00012320       0.016
   0.02725047  0.06608178  0.00030610       0.016
   0.05465380  0.06601900  0.00048901       0.016
  -0.02755618  0.06620733 -0.00005971       0.016
  -0.00020380  0.08819274  0.00016426       0.008
   0.02719952  0.08812996  0.00034717       0.016
   0.05460285  0.08806718  0.00053007       0.008
   0.00014029  0.00004715  0.02523238       0.016
   0.02754361 -0.00001563  0.02541529       0.016
   0.05494694 -0.00007841  0.02559819       0.016
  -0.02726304  0.00010993  0.02504948       0.016
   0.00008934  0.02209533  0.02527345       0.016
   0.02749266  0.02203255  0.02545636       0.016
   0.05489599  0.02196978  0.02563926       0.016
  -0.02731399  0.02215811  0.02509055       0.016
   0.00003839  0.04414352  0.02531452       0.016
   0.02744171  0.04408074  0.02549742       0.016
   0.05484504  0.04401796  0.02568033       0.016
  -0.02736494  0.04420629  0.02513161       0.016
  -0.00001257  0.06619170  0.02535558       0.016
   0.02739076  0.06612892  0.02553849       0.016
   0.05479409  0.06606615  0.02572139       0.016
  -0.02741589  0.06625448  0.02517268       0.016
  -0.00006352  0.08823989  0.02539665       0.016
   0.02733981  0.08817711  0.02557955       0.016
   0.05474314  0.08811433  0.02576246       0.016
  -0.02746684  0.08830266  0.02521374       0.016
   0.00029314 -0.06609741  0.02510919       0.016
   0.02769647 -0.06616018  0.02529209       0.016
   0.05509979 -0.06622296  0.02547500       0.016
  -0.02711019 -0.06603463  0.02492628       0.016
   0.00024219 -0.04404922  0.02515025       0.016
   0.02764552 -0.04411200  0.02533316       0.016
   0.05504884 -0.04417478  0.02551606       0.016
  -0.02716114 -0.04398644  0.02496735       0.016
   0.00019124 -0.02200104  0.02519132       0.016
   0.02759457 -0.02206381  0.02537422       0.016
   0.05499789 -0.02212659  0.02555713       0.016
  -0.02721209 -0.02193826  0.02500841       0.016
   0.00028058  0.00009430  0.05046477       0.008
   0.02768390  0.00003152  0.05064767       0.016
   0.05508723 -0.00003126  0.05083058       0.008
   0.00022962  0.02214248  0.05050583       0.016
   0.02763295  0.02207970  0.05068874       0.016
   0.05503628  0.02201692  0.05087164       0.016
  -0.02717370  0.02220526  0.05032293       0.016
   0.00017867  0.04419066  0.05054690       0.016
   0.02758200  0.04412789  0.05072981       0.016
   0.05498533  0.04406511  0.05091271       0.016
  -0.02722465  0.04425344  0.05036400       0.016
   0.00012772  0.06623885  0.05058797       0.016
   0.02753105  0.06617607  0.05077087       0.016
   0.05493438  0.06611329  0.05095378       0.016
  -0.02727561  0.06630163  0.05040506       0.016
   0.00007677  0.08828703  0.05062903       0.008
   0.02748010  0.08822426  0.05081194       0.016
   0.05488342  0.08816148  0.05099484       0.008
 
 k-points in reciprocal lattice and weights: Automatic mesh                          
   0.00000000  0.00000000  0.00000000       0.008
   0.25000000  0.00000000  0.00000000       0.016
   0.50000000  0.00000000  0.00000000       0.008
   0.00000000  0.12500000  0.00000000       0.016
   0.25000000  0.12500000  0.00000000       0.016
   0.50000000  0.12500000  0.00000000       0.016
  -0.25000000  0.12500000 -0.00000000       0.016
   0.00000000  0.25000000  0.00000000       0.016
   0.25000000  0.25000000  0.00000000       0.016
   0.50000000  0.25000000  0.00000000       0.016
  -0.25000000  0.25000000 -0.00000000       0.016
   0.00000000  0.37500000  0.00000000       0.016
   0.25000000  0.37500000  0.00000000       0.016
   0.50000000  0.37500000  0.00000000       0.016
  -0.25000000  0.37500000 -0.00000000       0.016
   0.00000000  0.50000000  0.00000000       0.008
   0.25000000  0.50000000  0.00000000       0.016
   0.50000000  0.50000000  0.00000000       0.008
  -0.00000000 -0.00000000  0.25000000       0.016
   0.25000000 -0.00000000  0.25000000       0.016
   0.50000000  0.00000000  0.25000000       0.016
  -0.25000000 -0.00000000  0.25000000       0.016
   0.00000000  0.12500000  0.25000000       0.016
   0.25000000  0.12500000  0.25000000       0.016
   0.50000000  0.12500000  0.25000000       0.016
  -0.25000000  0.12500000  0.25000000       0.016
   0.00000000  0.25000000  0.25000000       0.016
   0.25000000  0.25000000  0.25000000       0.016
   0.50000000  0.25000000  0.25000000       0.016
  -0.25000000  0.25000000  0.25000000       0.016
   0.00000000  0.37500000  0.25000000       0.016
   0.25000000  0.37500000  0.25000000       0.016
   0.50000000  0.37500000  0.25000000       0.016
  -0.25000000  0.37500000  0.25000000       0.016
  -0.00000000  0.50000000  0.25000000       0.016
   0.25000000  0.50000000  0.25000000       0.016
   0.50000000  0.50000000  0.25000000       0.016
  -0.25000000  0.50000000  0.25000000       0.016
  -0.00000000 -0.37500000  0.25000000       0.016
   0.25000000 -0.37500000  0.25000000       0.016
   0.50000000 -0.37500000  0.25000000       0.016
  -0.25000000 -0.37500000  0.25000000       0.016
  -0.00000000 -0.25000000  0.25000000       0.016
   0.25000000 -0.25000000  0.25000000       0.016
   0.50000000 -0.25000000  0.25000000       0.016
  -0.25000000 -0.25000000  0.25000000       0.016
  -0.00000000 -0.12500000  0.25000000       0.016
   0.25000000 -0.12500000  0.25000000       0.016
   0.50000000 -0.12500000  0.25000000       0.016
  -0.25000000 -0.12500000  0.25000000       0.016
  -0.00000000 -0.00000000  0.50000000       0.008
   0.25000000 -0.00000000  0.50000000       0.016
   0.50000000 -0.00000000  0.50000000       0.008
  -0.00000000  0.12500000  0.50000000       0.016
   0.25000000  0.12500000  0.50000000       0.016
   0.50000000  0.12500000  0.50000000       0.016
  -0.25000000  0.12500000  0.50000000       0.016
   0.00000000  0.25000000  0.50000000       0.016
   0.25000000  0.25000000  0.50000000       0.016
   0.50000000  0.25000000  0.50000000       0.016
  -0.25000000  0.25000000  0.50000000       0.016
   0.00000000  0.37500000  0.50000000       0.016
   0.25000000  0.37500000  0.50000000       0.016
   0.50000000  0.37500000  0.50000000       0.016
  -0.25000000  0.37500000  0.50000000       0.016
   0.00000000  0.50000000  0.50000000       0.008
   0.25000000  0.50000000  0.50000000       0.016
   0.50000000  0.50000000  0.50000000       0.008
 
 position of ions in fractional coordinates (direct lattice) 
   0.25023150  0.65024015  0.12465824
   0.74970948  0.65860659  0.12238583
   0.74978563  0.65339429  0.62680567
   0.25020955  0.34661529  0.37320338
   0.74976571  0.34974996  0.87533765
   0.25027620  0.34139097  0.87759588
   0.10966055  0.11173995  0.46371382
   0.11314363  0.10979311  0.96277709
   0.61464997  0.10801799  0.46708958
   0.61243035  0.11300375  0.96370642
   0.38760041  0.88695926  0.03634470
   0.38536451  0.89198566  0.53293551
   0.88685616  0.89019888  0.03722127
   0.89036208  0.88822452  0.53626216
   0.38935685  0.12148760  0.28873207
   0.38966254  0.10243273  0.78624969
   0.88961170  0.11236740  0.28282225
   0.88334387  0.11089154  0.78730327
   0.11665901  0.88913170  0.21267895
   0.11037626  0.88764030  0.71716713
   0.61033797  0.89756742  0.21375072
   0.61070749  0.87863692  0.71135086
   0.13328246  0.37748988  0.20494551
   0.13471323  0.36531566  0.71113478
   0.62879523  0.39280818  0.19536502
   0.63205562  0.37426284  0.70741132
   0.36793645  0.62576924  0.29259585
   0.37119954  0.60721249  0.80462584
   0.86529212  0.63468102  0.28882068
   0.86672048  0.62251609  0.79505595
   0.36246031  0.37631995  0.04512501
   0.36883582  0.37140962  0.54221733
   0.86894207  0.37715828  0.04254863
   0.87116499  0.38989230  0.55532079
   0.12878501  0.61000865  0.44464854
   0.13105801  0.62284180  0.95745128
   0.63116233  0.62860633  0.45778881
   0.63752170  0.62361668  0.95485943
   0.00003948  0.17384924  0.12484421
   0.99961313  0.17494074  0.62705757
   0.50160295  0.17759382  0.12468130
   0.50117338  0.17179981  0.62357669
   0.00038388  0.82504219  0.37291663
   0.99995568  0.82615757  0.87515492
   0.49883096  0.82821557  0.37643458
   0.49839340  0.82240905  0.87533458
   0.24946237  0.65804265  0.62566786
   0.75052381  0.34196816  0.37432477
 
 position of ions in cartesian coordinates  (Angst):
   2.28319603  3.68948447  1.21551359
   6.84037676  3.74753769  1.16755318
   6.80762284  3.70860247  6.16555046
   2.26258298  1.96347294  3.68141418
   6.78702892  1.98248088  8.63132082
   2.22974406  1.92446990  8.67914125
   0.97124592  0.62719805  4.58785930
   0.96997184  0.60694799  9.53257425
   5.57817781  0.61672829  4.59571186
   5.52512835  0.63570704  9.51640239
   3.54539866  5.03610432  0.33097780
   3.49220295  5.05531361  5.25141086
   8.10027649  5.06502797  0.31428446
   8.09921196  5.04462286  5.25877677
   3.53472485  0.69164116  2.83978430
   3.50434116  0.57435947  7.76952829
   8.09900563  0.65063883  2.75593046
   8.00841800  0.63275173  7.75481610
   1.06186002  5.03940185  2.09188222
   0.97113563  5.02142615  7.09083967
   5.56591371  5.09766279  2.07735063
   5.53610853  4.98108603  7.00790764
   1.20735199  2.13916953  2.01987026
   1.18674886  2.06075982  7.03540512
   5.72893109  2.23668798  1.89962636
   5.72454937  2.12208728  6.97316947
   3.34562851  3.55011568  2.87377643
   3.34127238  3.43545065  7.94715802
   7.88355313  3.61124369  2.81102813
   7.86292505  3.53288576  7.82701884
   3.30878674  2.14036397  0.42469857
   3.33399308  2.10341049  5.34976953
   7.92978731  2.15589093  0.37345107
   7.91630081  2.21859151  5.45390538
   1.15349404  3.45286779  4.39266924
   1.14046374  3.51613095  9.47342281
   5.73624009  3.56870115  4.49716609
   5.76129954  3.53129804  9.42202372
  -0.00563122  0.98330757  1.23513818
   9.08062604  1.00131958  6.16046740
   4.57037621  1.01516230  1.20802280
   4.53336648  0.97302117  6.15131406
  -0.01040158  4.67060543  3.68615217
   9.07583745  4.68875234  8.61172819
   4.53692286  4.69908727  3.69567214
   4.49983967  4.65687499  8.63900956
   2.24312601  3.72438161  6.17962547
   6.82699879  1.94770092  3.66717701
 


--------------------------------------------------------------------------------------------------------


 k-point  1 :   0.0000 0.0000 0.0000  plane waves:   13025
 k-point  2 :   0.2500 0.0000 0.0000  plane waves:   13018
 k-point  3 :   0.5000 0.0000 0.0000  plane waves:   12984
 k-point  4 :   0.0000 0.1250 0.0000  plane waves:   13014
 k-point  5 :   0.2500 0.1250 0.0000  plane waves:   13018
 k-point  6 :   0.5000 0.1250 0.0000  plane waves:   13007
 k-point  7 :  -0.2500 0.1250-0.0000  plane waves:   13007
 k-point  8 :   0.0000 0.2500 0.0000  plane waves:   13010
 k-point  9 :   0.2500 0.2500 0.0000  plane waves:   13003
 k-point 10 :   0.5000 0.2500 0.0000  plane waves:   12991
 k-point 11 :  -0.2500 0.2500-0.0000  plane waves:   12993
 k-point 12 :   0.0000 0.3750 0.0000  plane waves:   13020
 k-point 13 :   0.2500 0.3750 0.0000  plane waves:   13003
 k-point 14 :   0.5000 0.3750 0.0000  plane waves:   12991
 k-point 15 :  -0.2500 0.3750-0.0000  plane waves:   12997
 k-point 16 :   0.0000 0.5000 0.0000  plane waves:   12986
 k-point 17 :   0.2500 0.5000 0.0000  plane waves:   13003
 k-point 18 :   0.5000 0.5000 0.0000  plane waves:   13010
 k-point 19 :  -0.0000-0.0000 0.2500  plane waves:   13042
 k-point 20 :   0.2500-0.0000 0.2500  plane waves:   13011
 k-point 21 :   0.5000 0.0000 0.2500  plane waves:   13007
 k-point 22 :  -0.2500-0.0000 0.2500  plane waves:   13030
 k-point 23 :   0.0000 0.1250 0.2500  plane waves:   13037
 k-point 24 :   0.2500 0.1250 0.2500  plane waves:   13012
 k-point 25 :   0.5000 0.1250 0.2500  plane waves:   12996
 k-point 26 :  -0.2500 0.1250 0.2500  plane waves:   13016
 k-point 27 :   0.0000 0.2500 0.2500  plane waves:   13022
 k-point 28 :   0.2500 0.2500 0.2500  plane waves:   13012
 k-point 29 :   0.5000 0.2500 0.2500  plane waves:   13008
 k-point 30 :  -0.2500 0.2500 0.2500  plane waves:   13016
 k-point 31 :   0.0000 0.3750 0.2500  plane waves:   12999
 k-point 32 :   0.2500 0.3750 0.2500  plane waves:   13003
 k-point 33 :   0.5000 0.3750 0.2500  plane waves:   13001
 k-point 34 :  -0.2500 0.3750 0.2500  plane waves:   12982
 k-point 35 :  -0.0000 0.5000 0.2500  plane waves:   13013
 k-point 36 :   0.2500 0.5000 0.2500  plane waves:   13015
 k-point 37 :   0.5000 0.5000 0.2500  plane waves:   13004
 k-point 38 :  -0.2500 0.5000 0.2500  plane waves:   13001
 k-point 39 :  -0.0000-0.3750 0.2500  plane waves:   13014
 k-point 40 :   0.2500-0.3750 0.2500  plane waves:   13006
 k-point 41 :   0.5000-0.3750 0.2500  plane waves:   13009
 k-point 42 :  -0.2500-0.3750 0.2500  plane waves:   12997
 k-point 43 :  -0.0000-0.2500 0.2500  plane waves:   13011
 k-point 44 :   0.2500-0.2500 0.2500  plane waves:   13004
 k-point 45 :   0.5000-0.2500 0.2500  plane waves:   13005
 k-point 46 :  -0.2500-0.2500 0.2500  plane waves:   13023
 k-point 47 :  -0.0000-0.1250 0.2500  plane waves:   13018
 k-point 48 :   0.2500-0.1250 0.2500  plane waves:   13021
 k-point 49 :   0.5000-0.1250 0.2500  plane waves:   13002
 k-point 50 :  -0.2500-0.1250 0.2500  plane waves:   13029
 k-point 51 :  -0.0000-0.0000 0.5000  plane waves:   13040
 k-point 52 :   0.2500-0.0000 0.5000  plane waves:   13029
 k-point 53 :   0.5000-0.0000 0.5000  plane waves:   13022
 k-point 54 :  -0.0000 0.1250 0.5000  plane waves:   13015
 k-point 55 :   0.2500 0.1250 0.5000  plane waves:   13028
 k-point 56 :   0.5000 0.1250 0.5000  plane waves:   13027
 k-point 57 :  -0.2500 0.1250 0.5000  plane waves:   13025
 k-point 58 :   0.0000 0.2500 0.5000  plane waves:   13006
 k-point 59 :   0.2500 0.2500 0.5000  plane waves:   13014
 k-point 60 :   0.5000 0.2500 0.5000  plane waves:   13029
 k-point 61 :  -0.2500 0.2500 0.5000  plane waves:   13021
 k-point 62 :   0.0000 0.3750 0.5000  plane waves:   13004
 k-point 63 :   0.2500 0.3750 0.5000  plane waves:   12988
 k-point 64 :   0.5000 0.3750 0.5000  plane waves:   13023
 k-point 65 :  -0.2500 0.3750 0.5000  plane waves:   13004
 k-point 66 :   0.0000 0.5000 0.5000  plane waves:   13022
 k-point 67 :   0.2500 0.5000 0.5000  plane waves:   12999
 k-point 68 :   0.5000 0.5000 0.5000  plane waves:   12964

 maximum and minimum number of plane-waves per node :      3301     3179

 maximum number of plane-waves:     13042
 maximum index in each direction: 
   IXMAX=   16   IYMAX=   10   IZMAX=   18
   IXMIN=  -17   IYMIN=  -10   IZMIN=  -18


 real space projection operators:
  total allocation   :       6235.05 KBytes
  max/ min on nodes  :       1624.66       1493.72


 parallel 3D FFT for wavefunctions:
    minimum data exchange during FFTs selected (reduces bandwidth)
 parallel 3D FFT for charge:
    minimum data exchange during FFTs selected (reduces bandwidth)


 total amount of memory used by VASP MPI-rank0   143717. kBytes
=======================================================================

   base      :      30000. kBytes
   nonlr-proj:       4224. kBytes
   fftplans  :       1587. kBytes
   grid      :       2924. kBytes
   one-center:        186. kBytes
   wavefun   :     104796. kBytes
 
     INWAV:  cpu time    0.0000: real time    0.0002
 Broyden mixing: mesh for mixing (old mesh)
   NGX = 33   NGY = 21   NGZ = 37
  (NGX  =100   NGY  = 64   NGZ  =108)
  gives a total of  25641 points

 initial charge density was supplied:
 charge density of overlapping atoms calculated
 number of electron     370.0000000 magnetization 
 keeping initial charge density in first step


--------------------------------------------------------------------------------------------------------


 Maximum index for non-local projection operator          780
 Maximum index for augmentation-charges         1030 (set IRDMAX)


--------------------------------------------------------------------------------------------------------


 First call to EWALD:  gamma=   0.221
 Maximum number of real-space cells 2x 4x 2
 Maximum number of reciprocal cells 3x 2x 3

    FEWALD:  cpu time    0.0018: real time    0.0027


--------------------------------------- Iteration      1(   1)  ---------------------------------------


    POTLOK:  cpu time    0.0167: real time    0.0196
    SETDIJ:  cpu time    0.0042: real time    0.0042
     EDDAV:  cpu time   19.3372: real time   19.3479
 BZINTS: Fermi energy: 23.500905;370.000000 electrons
         Band energy:1023.839584;  BLOECHL correction: -0.073323
       DOS:  cpu time    0.1272: real time    0.1272
    --------------------------------------------
      LOOP:  cpu time   19.4854: real time   19.4989

 eigenvalue-minimisations  : 33840
 total energy-change (2. order) : 0.4386053E+04  (-0.2086893E+05)
 number of electron     370.0000000 magnetization 
 augmentation part      370.0000000 magnetization 

 Free energy of the ion-electron system (eV)
  ---------------------------------------------------
  alpha Z        PSCENC =      1846.54931337
  Ewald energy   TEWEN  =    -27866.69025708
  -Hartree energ DENC   =    -15861.68108341
  -exchange      EXHF   =         0.00000000
  -V(xc)+E(xc)   XCENC  =      1246.49006951
  PAW double counting   =     37467.60136202   -38188.76428185
  entropy T*S    EENTRO =         0.00000000
  eigenvalues    EBANDS =      1023.83958410
  atomic energy  EATOM  =     44718.70844369
  Solvation  Ediel_sol  =         0.00000000
  ---------------------------------------------------
  free energy    TOTEN  =      4386.05315035 eV

  energy without entropy =     4386.05315035  energy(sigma->0) =     4386.05315035


--------------------------------------------------------------------------------------------------------




--------------------------------------- Iteration      1(   2)  ---------------------------------------


     EDDAV:  cpu time   18.7018: real time   18.7084
 BZINTS: Fermi energy:  8.557916;370.000000 electrons
         Band energy:***********;  BLOECHL correction: -0.021163
       DOS:  cpu time    0.1219: real time    0.1220
    --------------------------------------------
      LOOP:  cpu time   18.8237: real time   18.8304

 eigenvalue-minimisations  : 32688
 total energy-change (2. order) :-0.4266403E+04  (-0.4017575E+04)
 number of electron     370.0000000 magnetization 
 augmentation part      370.0000000 magnetization 

 Free energy of the ion-electron system (eV)
  ---------------------------------------------------
  alpha Z        PSCENC =      1846.54931337
  Ewald energy   TEWEN  =    -27866.69025708
  -Hartree energ DENC   =    -15861.68108341
  -exchange      EXHF   =         0.00000000
  -V(xc)+E(xc)   XCENC  =      1246.49006951
  PAW double counting   =     37467.60136202   -38188.76428185
  entropy T*S    EENTRO =         0.00000000
  eigenvalues    EBANDS =     -3242.56334371
  atomic energy  EATOM  =     44718.70844369
  Solvation  Ediel_sol  =         0.00000000
  ---------------------------------------------------
  free energy    TOTEN  =       119.65022254 eV

  energy without entropy =      119.65022254  energy(sigma->0) =      119.65022254


--------------------------------------------------------------------------------------------------------




--------------------------------------- Iteration      1(   3)  ---------------------------------------


     EDDAV:  cpu time   19.5164: real time   19.5212
 BZINTS: Fermi energy:  6.778530;370.000000 electrons
         Band energy:***********;  BLOECHL correction: -0.007416
       DOS:  cpu time    0.1333: real time    0.1333
    --------------------------------------------
      LOOP:  cpu time   19.6498: real time   19.6545

 eigenvalue-minimisations  : 34432
 total energy-change (2. order) :-0.5627732E+03  (-0.5395535E+03)
 number of electron     370.0000000 magnetization 
 augmentation part      370.0000000 magnetization 

 Free energy of the ion-electron system (eV)
  ---------------------------------------------------
  alpha Z        PSCENC =      1846.54931337
  Ewald energy   TEWEN  =    -27866.69025708
  -Hartree energ DENC   =    -15861.68108341
  -exchange      EXHF   =         0.00000000
  -V(xc)+E(xc)   XCENC  =      1246.49006951
  PAW double counting   =     37467.60136202   -38188.76428185
  entropy T*S    EENTRO =         0.00000000
  eigenvalues    EBANDS =     -3805.33650825
  atomic energy  EATOM  =     44718.70844369
  Solvation  Ediel_sol  =         0.00000000
  ---------------------------------------------------
  free energy    TOTEN  =      -443.12294201 eV

  energy without entropy =     -443.12294201  energy(sigma->0) =     -443.12294201


--------------------------------------------------------------------------------------------------------




--------------------------------------- Iteration      1(   4)  ---------------------------------------


     EDDAV:  cpu time   20.5975: real time   20.6025
 BZINTS: Fermi energy:  6.622080;370.000000 electrons
         Band energy:***********;  BLOECHL correction: -0.003340
       DOS:  cpu time    0.1344: real time    0.1344
    --------------------------------------------
      LOOP:  cpu time   20.7319: real time   20.7369

 eigenvalue-minimisations  : 36824
 total energy-change (2. order) :-0.2781296E+02  (-0.2682079E+02)
 number of electron     370.0000000 magnetization 
 augmentation part      370.0000000 magnetization 

 Free energy of the ion-electron system (eV)
  ---------------------------------------------------
  alpha Z        PSCENC =      1846.54931337
  Ewald energy   TEWEN  =    -27866.69025708
  -Hartree energ DENC   =    -15861.68108341
  -exchange      EXHF   =         0.00000000
  -V(xc)+E(xc)   XCENC  =      1246.49006951
  PAW double counting   =     37467.60136202   -38188.76428185
  entropy T*S    EENTRO =         0.00000000
  eigenvalues    EBANDS =     -3833.14946851
  atomic energy  EATOM  =     44718.70844369
  Solvation  Ediel_sol  =         0.00000000
  ---------------------------------------------------
  free energy    TOTEN  =      -470.93590226 eV

  energy without entropy =     -470.93590226  energy(sigma->0) =     -470.93590226


--------------------------------------------------------------------------------------------------------




--------------------------------------- Iteration      1(   5)  ---------------------------------------


     EDDAV:  cpu time   21.4105: real time   21.4143
 BZINTS: Fermi energy:  6.617266;370.000000 electrons
         Band energy:***********;  BLOECHL correction: -0.003426
       DOS:  cpu time    0.1303: real time    0.1303
    CHARGE:  cpu time    0.4531: real time    0.4531
    MIXING:  cpu time    0.0011: real time    0.0011
    --------------------------------------------
      LOOP:  cpu time   21.9951: real time   21.9989

 eigenvalue-minimisations  : 38712
 total energy-change (2. order) :-0.9419476E+00  (-0.9381137E+00)
 number of electron     370.0000308 magnetization 
 augmentation part      102.0636928 magnetization 

 Broyden mixing:
  rms(total) = 0.15033E+02    rms(broyden)= 0.15030E+02
  rms(prec ) = 0.16092E+02
  weight for this iteration     100.00

 Free energy of the ion-electron system (eV)
  ---------------------------------------------------
  alpha Z        PSCENC =      1846.54931337
  Ewald energy   TEWEN  =    -27866.69025708
  -Hartree energ DENC   =    -15861.68108341
  -exchange      EXHF   =         0.00000000
  -V(xc)+E(xc)   XCENC  =      1246.49006951
  PAW double counting   =     37467.60136202   -38188.76428185
  entropy T*S    EENTRO =         0.00000000
  eigenvalues    EBANDS =     -3834.09141611
  atomic energy  EATOM  =     44718.70844369
  Solvation  Ediel_sol  =         0.00000000
  ---------------------------------------------------
  free energy    TOTEN  =      -471.87784986 eV

  energy without entropy =     -471.87784986  energy(sigma->0) =     -471.87784986


--------------------------------------------------------------------------------------------------------




--------------------------------------- Iteration      1(   6)  ---------------------------------------


    POTLOK:  cpu time    0.0131: real time    0.0132
    SETDIJ:  cpu time    0.0038: real time    0.0038
     EDDAV:  cpu time   21.6316: real time   21.6367
 BZINTS: Fermi energy:  4.699985;370.000000 electrons
         Band energy:***********;  BLOECHL correction: -0.001802
       DOS:  cpu time    0.1416: real time    0.1416
    CHARGE:  cpu time    0.4525: real time    0.4525
    MIXING:  cpu time    0.0008: real time    0.0008
    --------------------------------------------
      LOOP:  cpu time   22.2433: real time   22.2487

 eigenvalue-minimisations  : 39416
 total energy-change (2. order) : 0.3383109E+02  (-0.6317766E+02)
 number of electron     370.0000115 magnetization 
 augmentation part      105.0420451 magnetization 

 Broyden mixing:
  rms(total) = 0.13980E+02    rms(broyden)= 0.13976E+02
  rms(prec ) = 0.16874E+02
  weight for this iteration     100.00

 eigenvalues of (default mixing * dielectric matrix)
  average eigenvalue GAMMA=   0.5604
  0.5604

 Free energy of the ion-electron system (eV)
  ---------------------------------------------------
  alpha Z        PSCENC =      1846.54931337
  Ewald energy   TEWEN  =    -27866.69025708
  -Hartree energ DENC   =    -15817.30329518
  -exchange      EXHF   =         0.00000000
  -V(xc)+E(xc)   XCENC  =      1274.71300841
  PAW double counting   =     41946.41516321   -42634.53792269
  entropy T*S    EENTRO =         0.00000000
  eigenvalues    EBANDS =     -3905.90121138
  atomic energy  EATOM  =     44718.70844369
  Solvation  Ediel_sol  =         0.00000000
  ---------------------------------------------------
  free energy    TOTEN  =      -438.04675765 eV

  energy without entropy =     -438.04675765  energy(sigma->0) =     -438.04675765


--------------------------------------------------------------------------------------------------------




--------------------------------------- Iteration      1(   7)  ---------------------------------------


    POTLOK:  cpu time    0.0136: real time    0.0144
    SETDIJ:  cpu time    0.0038: real time    0.0038
     EDDAV:  cpu time   20.4011: real time   20.4041
 BZINTS: Fermi energy:  6.216116;370.000000 electrons
         Band energy:***********;  BLOECHL correction: -0.007116
       DOS:  cpu time    0.1420: real time    0.1420
    CHARGE:  cpu time    0.4523: real time    0.4524
    MIXING:  cpu time    0.0007: real time    0.0007
    --------------------------------------------
      LOOP:  cpu time   21.0134: real time   21.0174

 eigenvalue-minimisations  : 36520
 total energy-change (2. order) :-0.3641502E+01  (-0.2644060E+02)
 number of electron     370.0000348 magnetization 
 augmentation part       98.7629489 magnetization 

 Broyden mixing:
  rms(total) = 0.14334E+02    rms(broyden)= 0.14331E+02
  rms(prec ) = 0.15916E+02
  weight for this iteration     100.00

 eigenvalues of (default mixing * dielectric matrix)
  average eigenvalue GAMMA=   0.5661
  0.8975  0.2346

 Free energy of the ion-electron system (eV)
  ---------------------------------------------------
  alpha Z        PSCENC =      1846.54931337
  Ewald energy   TEWEN  =    -27866.69025708
  -Hartree energ DENC   =    -15811.14733346
  -exchange      EXHF   =         0.00000000
  -V(xc)+E(xc)   XCENC  =      1272.81598766
  PAW double counting   =     44224.10374260   -44954.86177045
  entropy T*S    EENTRO =         0.00000000
  eigenvalues    EBANDS =     -3871.16638606
  atomic energy  EATOM  =     44718.70844369
  Solvation  Ediel_sol  =         0.00000000
  ---------------------------------------------------
  free energy    TOTEN  =      -441.68825973 eV

  energy without entropy =     -441.68825973  energy(sigma->0) =     -441.68825973


--------------------------------------------------------------------------------------------------------




--------------------------------------- Iteration      1(   8)  ---------------------------------------


    POTLOK:  cpu time    0.0130: real time    0.0131
    SETDIJ:  cpu time    0.0038: real time    0.0038
     EDDAV:  cpu time   22.0800: real time   22.0836
 BZINTS: Fermi energy:  3.901892;370.000000 electrons
         Band energy:***********;  BLOECHL correction: -0.001871
       DOS:  cpu time    0.1376: real time    0.1376
    CHARGE:  cpu time    0.4525: real time    0.4526
    MIXING:  cpu time    0.0008: real time    0.0008
    --------------------------------------------
      LOOP:  cpu time   22.6877: real time   22.6915

 eigenvalue-minimisations  : 40376
 total energy-change (2. order) : 0.1029825E+02  (-0.1319403E+02)
 number of electron     370.0000348 magnetization 
 augmentation part      106.6304039 magnetization 

 Broyden mixing:
  rms(total) = 0.10064E+02    rms(broyden)= 0.10062E+02
  rms(prec ) = 0.12001E+02
  weight for this iteration     100.00

 eigenvalues of (default mixing * dielectric matrix)
  average eigenvalue GAMMA=   0.5239
  0.9748  0.2984  0.2984

 Free energy of the ion-electron system (eV)
  ---------------------------------------------------
  alpha Z        PSCENC =      1846.54931337
  Ewald energy   TEWEN  =    -27866.69025708
  -Hartree energ DENC   =    -15479.45379882
  -exchange      EXHF   =         0.00000000
  -V(xc)+E(xc)   XCENC  =      1260.88078285
  PAW double counting   =     46320.88865594   -47059.03659151
  entropy T*S    EENTRO =         0.00000000
  eigenvalues    EBANDS =     -4173.23656079
  atomic energy  EATOM  =     44718.70844369
  Solvation  Ediel_sol  =         0.00000000
  ---------------------------------------------------
  free energy    TOTEN  =      -431.39001234 eV

  energy without entropy =     -431.39001234  energy(sigma->0) =     -431.39001234


--------------------------------------------------------------------------------------------------------




--------------------------------------- Iteration      1(   9)  ---------------------------------------


    POTLOK:  cpu time    0.0130: real time    0.0131
    SETDIJ:  cpu time    0.0038: real time    0.0038
     EDDAV:  cpu time   21.1277: real time   21.1306
 BZINTS: Fermi energy:  5.904968;370.000000 electrons
         Band energy:***********;  BLOECHL correction: -0.015108
       DOS:  cpu time    0.1205: real time    0.1205
    CHARGE:  cpu time    0.4526: real time    0.4526
    MIXING:  cpu time    0.0008: real time    0.0008
    --------------------------------------------
      LOOP:  cpu time   21.7184: real time   21.7214

 eigenvalue-minimisations  : 38536
 total energy-change (2. order) :-0.4015668E+01  (-0.8544599E+01)
 number of electron     370.0000323 magnetization 
 augmentation part      103.9461100 magnetization 

 Broyden mixing:
  rms(total) = 0.83261E+01    rms(broyden)= 0.83208E+01
  rms(prec ) = 0.10132E+02
  weight for this iteration     100.00

 eigenvalues of (default mixing * dielectric matrix)
  average eigenvalue GAMMA=   0.6888
  1.6686  0.6185  0.3124  0.1559

 Free energy of the ion-electron system (eV)
  ---------------------------------------------------
  alpha Z        PSCENC =      1846.54931337
  Ewald energy   TEWEN  =    -27866.69025708
  -Hartree energ DENC   =    -15642.59174182
  -exchange      EXHF   =         0.00000000
  -V(xc)+E(xc)   XCENC  =      1266.40274869
  PAW double counting   =     47694.02144601   -48459.50310027
  entropy T*S    EENTRO =         0.00000000
  eigenvalues    EBANDS =     -3992.30253256
  atomic energy  EATOM  =     44718.70844369
  Solvation  Ediel_sol  =         0.00000000
  ---------------------------------------------------
  free energy    TOTEN  =      -435.40567995 eV

  energy without entropy =     -435.40567995  energy(sigma->0) =     -435.40567995


--------------------------------------------------------------------------------------------------------




--------------------------------------- Iteration      1(  10)  ---------------------------------------


    POTLOK:  cpu time    0.0130: real time    0.0131
    SETDIJ:  cpu time    0.0038: real time    0.0038
     EDDAV:  cpu time   20.6273: real time   20.6315
 BZINTS: Fermi energy:  5.673059;370.000000 electrons
         Band energy:***********;  BLOECHL correction: -0.004624
       DOS:  cpu time    0.1341: real time    0.1341
    CHARGE:  cpu time    0.4524: real time    0.4525
    MIXING:  cpu time    0.0009: real time    0.0009
    --------------------------------------------
      LOOP:  cpu time   21.2315: real time   21.2360

 eigenvalue-minimisations  : 37368
 total energy-change (2. order) : 0.4145386E+02  (-0.8416548E+01)
 number of electron     370.0000328 magnetization 
 augmentation part       99.1064843 magnetization 

 Broyden mixing:
  rms(total) = 0.57217E+01    rms(broyden)= 0.57199E+01
  rms(prec ) = 0.76632E+01
  weight for this iteration     100.00

 eigenvalues of (default mixing * dielectric matrix)
  average eigenvalue GAMMA=   0.6530
  1.7431  0.5417  0.5417  0.2620  0.1766

 Free energy of the ion-electron system (eV)
  ---------------------------------------------------
  alpha Z        PSCENC =      1846.54931337
  Ewald energy   TEWEN  =    -27866.69025708
  -Hartree energ DENC   =    -15957.07364850
  -exchange      EXHF   =         0.00000000
  -V(xc)+E(xc)   XCENC  =      1278.07946881
  PAW double counting   =     51190.05492666   -52011.90668383
  entropy T*S    EENTRO =         0.00000000
  eigenvalues    EBANDS =     -3591.67338101
  atomic energy  EATOM  =     44718.70844369
  Solvation  Ediel_sol  =         0.00000000
  ---------------------------------------------------
  free energy    TOTEN  =      -393.95181788 eV

  energy without entropy =     -393.95181788  energy(sigma->0) =     -393.95181788


--------------------------------------------------------------------------------------------------------




--------------------------------------- Iteration      1(  11)  ---------------------------------------


    POTLOK:  cpu time    0.0136: real time    0.0141
    SETDIJ:  cpu time    0.0039: real time    0.0039
     EDDAV:  cpu time   22.1380: real time   22.1414
 BZINTS: Fermi energy:  4.408768;370.000000 electrons
         Band energy:***********;  BLOECHL correction:  0.000000
       DOS:  cpu time    0.0281: real time    0.0281
    CHARGE:  cpu time    0.4534: real time    0.4535
    MIXING:  cpu time    0.0009: real time    0.0009
    --------------------------------------------
      LOOP:  cpu time   22.6379: real time   22.6419

 eigenvalue-minimisations  : 40704
 total energy-change (2. order) :-0.9812263E+01  (-0.5471649E+01)
 number of electron     370.0000303 magnetization 
 augmentation part      104.6173923 magnetization 

 Broyden mixing:
  rms(total) = 0.80815E+01    rms(broyden)= 0.80777E+01
  rms(prec ) = 0.11231E+02
  weight for this iteration     100.00

 eigenvalues of (default mixing * dielectric matrix)
  average eigenvalue GAMMA=   0.5653
  1.7609  0.5487  0.5487  0.2674  0.1777  0.0887

 Free energy of the ion-electron system (eV)
  ---------------------------------------------------
  alpha Z        PSCENC =      1846.54931337
  Ewald energy   TEWEN  =    -27866.69025708
  -Hartree energ DENC   =    -15682.26871267
  -exchange      EXHF   =         0.00000000
  -V(xc)+E(xc)   XCENC  =      1268.82163949
  PAW double counting   =     51552.65768506   -52347.77687769
  entropy T*S    EENTRO =         0.00000000
  eigenvalues    EBANDS =     -3893.76531539
  atomic energy  EATOM  =     44718.70844369
  Solvation  Ediel_sol  =         0.00000000
  ---------------------------------------------------
  free energy    TOTEN  =      -403.76408121 eV

  energy without entropy =     -403.76408121  energy(sigma->0) =     -403.76408121


--------------------------------------------------------------------------------------------------------




--------------------------------------- Iteration      1(  12)  ---------------------------------------


    POTLOK:  cpu time    0.0128: real time    0.0129
    SETDIJ:  cpu time    0.0038: real time    0.0038
     EDDAV:  cpu time   22.5488: real time   22.5525
 BZINTS: Fermi energy:  3.815345;370.000000 electrons
         Band energy:***********;  BLOECHL correction:  0.000000
       DOS:  cpu time    0.0247: real time    0.0247
    CHARGE:  cpu time    0.4536: real time    0.4538
    MIXING:  cpu time    0.0009: real time    0.0009
    --------------------------------------------
      LOOP:  cpu time   23.0447: real time   23.0487

 eigenvalue-minimisations  : 41648
 total energy-change (2. order) : 0.1137744E+02  (-0.5502104E+01)
 number of electron     370.0000307 magnetization 
 augmentation part      105.4264814 magnetization 

 Broyden mixing:
  rms(total) = 0.54878E+01    rms(broyden)= 0.54844E+01
  rms(prec ) = 0.73668E+01
  weight for this iteration     100.00

 eigenvalues of (default mixing * dielectric matrix)
  average eigenvalue GAMMA=   0.5005
  1.7541  0.5615  0.5615  0.2726  0.1710  0.0915  0.0915

 Free energy of the ion-electron system (eV)
  ---------------------------------------------------
  alpha Z        PSCENC =      1846.54931337
  Ewald energy   TEWEN  =    -27866.69025708
  -Hartree energ DENC   =    -15684.73386074
  -exchange      EXHF   =         0.00000000
  -V(xc)+E(xc)   XCENC  =      1268.97079479
  PAW double counting   =     51663.21940139   -52458.43486330
  entropy T*S    EENTRO =         0.00000000
  eigenvalues    EBANDS =     -3879.97561527
  atomic energy  EATOM  =     44718.70844369
  Solvation  Ediel_sol  =         0.00000000
  ---------------------------------------------------
  free energy    TOTEN  =      -392.38664314 eV

  energy without entropy =     -392.38664314  energy(sigma->0) =     -392.38664314


--------------------------------------------------------------------------------------------------------




--------------------------------------- Iteration      1(  13)  ---------------------------------------


    POTLOK:  cpu time    0.0128: real time    0.0130
    SETDIJ:  cpu time    0.0038: real time    0.0038
     EDDAV:  cpu time   21.7131: real time   21.7196
 BZINTS: Fermi energy:  3.659423;370.000000 electrons
         Band energy:***********;  BLOECHL correction: -0.003894
       DOS:  cpu time    0.1317: real time    0.1317
    CHARGE:  cpu time    0.4533: real time    0.4535
    MIXING:  cpu time    0.0010: real time    0.0010
    --------------------------------------------
      LOOP:  cpu time   22.3157: real time   22.3225

 eigenvalue-minimisations  : 39752
 total energy-change (2. order) : 0.7027532E+01  (-0.5173227E+00)
 number of electron     370.0000308 magnetization 
 augmentation part      105.9684391 magnetization 

 Broyden mixing:
  rms(total) = 0.33882E+01    rms(broyden)= 0.33832E+01
  rms(prec ) = 0.43718E+01
  weight for this iteration     100.00

 eigenvalues of (default mixing * dielectric matrix)
  average eigenvalue GAMMA=   0.4755
  1.7032  0.6318  0.6318  0.2898  0.1731  0.1731  0.1221  0.0789

 Free energy of the ion-electron system (eV)
  ---------------------------------------------------
  alpha Z        PSCENC =      1846.54931337
  Ewald energy   TEWEN  =    -27866.69025708
  -Hartree energ DENC   =    -15693.91814676
  -exchange      EXHF   =         0.00000000
  -V(xc)+E(xc)   XCENC  =      1269.17125610
  PAW double counting   =     51691.27089853   -52486.37416119
  entropy T*S    EENTRO =         0.00000000
  eigenvalues    EBANDS =     -3864.07645772
  atomic energy  EATOM  =     44718.70844369
[...]
  0.001  -0.001   0.001   0.001  -0.000  -0.000  -0.023   0.020   0.027   0.030   0.008   0.008  -0.008  -0.016  -0.012  -0.001


------------------------ aborting loop because EDIFF is reached ----------------------------------------


 


 total charge     
 
# of ion       s       p       d       tot
------------------------------------------
    1        0.213   6.199   7.867  14.279
    2        0.214   6.201   7.875  14.290
    3        0.213   6.199   7.866  14.279
    4        0.213   6.199   7.866  14.279
    5        0.213   6.199   7.867  14.280
    6        0.214   6.201   7.874  14.289
    7        1.572   3.453   0.000   5.025
    8        1.570   3.464   0.000   5.034
    9        1.573   3.472   0.000   5.045
   10        1.572   3.454   0.000   5.026
   11        1.572   3.454   0.000   5.026
   12        1.573   3.472   0.000   5.045
   13        1.570   3.464   0.000   5.034
   14        1.572   3.453   0.000   5.025
   15        1.569   3.461   0.000   5.030
   16        1.573   3.460   0.000   5.032
   17        1.573   3.474   0.000   5.046
   18        1.570   3.457   0.000   5.027
   19        1.570   3.457   0.000   5.027
   20        1.573   3.474   0.000   5.046
   21        1.573   3.460   0.000   5.032
   22        1.569   3.461   0.000   5.030
   23        1.575   3.441   0.000   5.016
   24        1.576   3.444   0.000   5.020
   25        1.579   3.439   0.000   5.018
   26        1.575   3.439   0.000   5.015
   27        1.575   3.439   0.000   5.014
   28        1.579   3.439   0.000   5.018
   29        1.576   3.444   0.000   5.020
   30        1.575   3.441   0.000   5.016
   31        1.572   3.448   0.000   5.021
   32        1.577   3.439   0.000   5.015
   33        1.576   3.439   0.000   5.015
   34        1.577   3.443   0.000   5.020
   35        1.577   3.443   0.000   5.020
   36        1.576   3.439   0.000   5.015
   37        1.577   3.439   0.000   5.015
   38        1.572   3.448   0.000   5.021
   39        0.696   1.008   4.141   5.845
   40        0.697   1.004   4.139   5.840
   41        0.696   1.003   4.131   5.829
   42        0.695   1.004   4.145   5.844
   43        0.697   1.004   4.139   5.840
   44        0.696   1.008   4.141   5.845
   45        0.695   1.004   4.145   5.844
   46        0.696   1.002   4.131   5.829
   47        0.175   6.136   8.898  15.209
   48        0.175   6.136   8.898  15.209
--------------------------------------------------
tot         57.556 167.962  98.122 323.640
 
    CHARGE:  cpu time    0.4541: real time    0.4541
    FORLOC:  cpu time    0.0053: real time    0.0053
    FORNL :  cpu time    2.8585: real time    2.8593
    STRESS:  cpu time    8.6045: real time    8.6068
    FORCOR:  cpu time    0.0182: real time    0.0182
    FORHAR:  cpu time    0.0078: real time    0.0078
    MIXING:  cpu time    0.0041: real time    0.0041
    OFIELD:  cpu time    0.0001: real time    0.0001

  FORCE on cell =-STRESS in cart. coord.  units (eV):
  Direction    XX          YY          ZZ          XY          YZ          ZX
  --------------------------------------------------------------------------------------
  Alpha Z  1846.54931  1846.54931  1846.54931
  Ewald  -10736.51075 -9781.82367 -7348.48409   -80.09173    45.52497   127.35008
  Hartree  4181.10759  4954.29553  6771.28974   -41.60276    22.69007    20.47736
  E(xc)   -2154.79738 -2152.53629 -2154.42904    -0.11294     0.02285    -1.06179
  Local     117.54602 -1597.25907 -5792.42390   115.34202   -64.39100  -133.28280
  n-local -1505.21828 -1514.21487 -1493.35222    -1.68051     0.58787     1.45948
  augment  1696.12115  1701.35411  1686.43665     3.25548    -2.17751    -5.06738
  Kinetic  6555.16221  6543.61321  6484.44106     4.90434    -2.28520    -9.91705
  Fock        0.00000     0.00000     0.00000     0.00000     0.00000     0.00000
  -------------------------------------------------------------------------------------
  Total      -0.04013    -0.02174     0.02754     0.01389    -0.02794    -0.04210
  in kB      -0.12545    -0.06796     0.08608     0.04342    -0.08735    -0.13162
  external pressure =       -0.04 kB  Pullay stress =        0.00 kB


 VOLUME and BASIS-vectors are now :
 -----------------------------------------------------------------------------
  energy-cutoff  :      500.00
  volume of cell :      512.48
      direct lattice vectors                 reciprocal lattice vectors
     9.123367253  0.021177726 -0.050763858     0.109613307 -0.000251110  0.000731620
     0.013059164  5.669451047 -0.010666169    -0.000407609  0.176385477  0.000328522
    -0.066176164 -0.018607392  9.908304869     0.000561150  0.000188590  0.100929539

  length of vectors
     9.123533060  5.669476121  9.908543329     0.109616036  0.176386254  0.100931275


 FORCES acting on ions
    electron-ion (+dipol)            ewald-force                    non-local-force                 convergence-correction
 -----------------------------------------------------------------------------------------------
   -.379E+01 -.267E+03 -.581E+01   0.376E+01 0.268E+03 0.595E+01   0.339E-01 -.128E+01 -.148E+00   -.102E-02 -.740E-02 0.121E-01
   -.129E+01 -.256E+03 -.267E+02   0.129E+01 0.257E+03 0.271E+02   0.307E-02 -.891E+00 -.416E+00   0.171E-02 0.468E-02 -.692E-02
   0.232E+01 -.256E+03 0.280E+02   -.226E+01 0.257E+03 -.281E+02   -.522E-01 -.103E+01 0.169E+00   -.200E-03 0.377E-02 0.601E-02
   -.232E+01 0.256E+03 -.278E+02   0.227E+01 -.257E+03 0.280E+02   0.535E-01 0.103E+01 -.171E+00   -.453E-03 0.132E-02 -.199E-01
   0.372E+01 0.267E+03 0.588E+01   -.369E+01 -.268E+03 -.600E+01   -.324E-01 0.128E+01 0.149E+00   0.168E-02 -.565E-03 -.277E-01
   0.135E+01 0.256E+03 0.267E+02   -.135E+01 -.257E+03 -.272E+02   -.417E-02 0.894E+00 0.413E+00   -.164E-02 0.670E-03 0.194E-01
   0.580E+02 0.104E+03 -.410E+02   -.462E+02 -.102E+03 0.343E+02   -.117E+02 -.148E+01 0.669E+01   0.935E-02 0.788E-02 -.751E-02
   0.684E+02 0.116E+03 -.434E+02   -.568E+02 -.115E+03 0.375E+02   -.116E+02 -.415E+00 0.591E+01   0.805E-02 0.305E-02 0.200E-02
   0.567E+02 0.108E+03 -.426E+02   -.421E+02 -.107E+03 0.348E+02   -.146E+02 -.105E+01 0.781E+01   -.835E-02 -.614E-02 0.938E-02
   0.616E+02 0.112E+03 -.344E+02   -.497E+02 -.112E+03 0.268E+02   -.119E+02 0.180E+00 0.763E+01   -.631E-02 -.468E-04 -.466E-02
   -.616E+02 -.112E+03 0.344E+02   0.497E+02 0.112E+03 -.268E+02   0.118E+02 -.182E+00 -.763E+01   -.136E-01 -.548E-02 0.646E-02
   -.567E+02 -.108E+03 0.426E+02   0.421E+02 0.107E+03 -.347E+02   0.146E+02 0.105E+01 -.781E+01   0.458E-02 0.715E-02 -.828E-02
   -.685E+02 -.116E+03 0.434E+02   0.569E+02 0.115E+03 -.375E+02   0.116E+02 0.416E+00 -.591E+01   0.138E-01 0.643E-02 -.659E-02
   -.579E+02 -.104E+03 0.410E+02   0.462E+02 0.102E+03 -.343E+02   0.117E+02 0.148E+01 -.669E+01   -.457E-02 -.609E-02 0.779E-02
   -.775E+02 0.125E+03 0.464E+02   0.679E+02 -.125E+03 -.405E+02   0.961E+01 -.169E+00 -.584E+01   -.157E-01 0.681E-02 0.252E-02
   -.565E+02 0.990E+02 0.447E+02   0.440E+02 -.969E+02 -.393E+02   0.125E+02 -.212E+01 -.543E+01   -.221E-02 0.443E-02 0.333E-02
   -.663E+02 0.110E+03 0.371E+02   0.531E+02 -.109E+03 -.291E+02   0.131E+02 -.884E+00 -.801E+01   0.155E-01 -.563E-02 -.478E-03
   -.622E+02 0.118E+03 0.480E+02   0.501E+02 -.119E+03 -.422E+02   0.121E+02 0.391E+00 -.582E+01   0.693E-03 -.124E-02 -.470E-02
   0.621E+02 -.118E+03 -.480E+02   -.500E+02 0.119E+03 0.422E+02   -.121E+02 -.396E+00 0.582E+01   0.152E-01 -.573E-02 -.300E-02
   0.663E+02 -.110E+03 -.372E+02   -.531E+02 0.109E+03 0.291E+02   -.131E+02 0.884E+00 0.801E+01   -.740E-02 0.698E-02 0.499E-02
   0.565E+02 -.990E+02 -.448E+02   -.440E+02 0.969E+02 0.393E+02   -.125E+02 0.212E+01 0.542E+01   -.154E-01 0.515E-02 0.458E-02
   0.775E+02 -.125E+03 -.463E+02   -.678E+02 0.125E+03 0.405E+02   -.964E+01 0.154E+00 0.583E+01   0.815E-02 -.627E-02 -.678E-02
   0.198E+03 0.111E+03 0.601E+02   -.192E+03 -.101E+03 -.552E+02   -.568E+01 -.101E+02 -.490E+01   0.194E-01 0.612E-02 0.563E-02
   0.176E+03 0.984E+02 0.860E+02   -.168E+03 -.866E+02 -.819E+02   -.798E+01 -.119E+02 -.416E+01   -.184E-02 -.709E-02 0.662E-02
   0.185E+03 0.105E+03 0.272E+02   -.177E+03 -.934E+02 -.193E+02   -.777E+01 -.111E+02 -.791E+01   -.188E-01 -.603E-02 -.232E-02
   0.193E+03 0.110E+03 0.736E+02   -.187E+03 -.100E+03 -.688E+02   -.597E+01 -.102E+02 -.480E+01   0.435E-02 0.675E-02 -.547E-02
   -.193E+03 -.110E+03 -.736E+02   0.187E+03 0.100E+03 0.688E+02   0.597E+01 0.101E+02 0.480E+01   -.179E-01 -.783E-02 -.651E-02
   -.185E+03 -.105E+03 -.273E+02   0.177E+03 0.934E+02 0.193E+02   0.777E+01 0.111E+02 0.791E+01   0.135E-02 -.513E-02 0.119E-01
   -.176E+03 -.984E+02 -.861E+02   0.168E+03 0.865E+02 0.819E+02   0.799E+01 0.119E+02 0.416E+01   0.168E-01 0.515E-02 0.957E-02
   -.198E+03 -.111E+03 -.600E+02   0.192E+03 0.101E+03 0.552E+02   0.568E+01 0.101E+02 0.490E+01   -.421E-02 0.152E-02 -.142E-01
   -.202E+03 0.121E+03 -.696E+02   0.196E+03 -.112E+03 0.654E+02   0.509E+01 -.858E+01 0.419E+01   -.154E-01 0.706E-02 0.373E-02
   -.179E+03 0.987E+02 -.688E+02   0.172E+03 -.867E+02 0.640E+02   0.766E+01 -.120E+02 0.480E+01   -.246E-02 -.797E-02 -.155E-01
   -.191E+03 0.105E+03 -.706E+02   0.185E+03 -.948E+02 0.657E+02   0.602E+01 -.105E+02 0.487E+01   0.131E-01 -.684E-02 -.640E-02
   -.191E+03 0.114E+03 -.244E+02   0.184E+03 -.104E+03 0.163E+02   0.709E+01 -.101E+02 0.811E+01   -.865E-03 0.880E-02 0.137E-01
   0.191E+03 -.114E+03 0.243E+02   -.184E+03 0.104E+03 -.161E+02   -.708E+01 0.101E+02 -.812E+01   0.552E-02 -.948E-02 -.159E-01
   0.191E+03 -.105E+03 0.706E+02   -.185E+03 0.948E+02 -.657E+02   -.602E+01 0.105E+02 -.487E+01   0.118E-01 -.353E-02 0.109E-01
   0.179E+03 -.987E+02 0.687E+02   -.172E+03 0.867E+02 -.639E+02   -.766E+01 0.120E+02 -.480E+01   -.192E-02 0.691E-02 0.180E-01
   0.202E+03 -.121E+03 0.696E+02   -.197E+03 0.112E+03 -.654E+02   -.508E+01 0.858E+01 -.418E+01   -.983E-02 -.665E-04 -.140E-01
   -.280E+01 0.412E+02 -.965E-01   0.266E+01 -.413E+02 0.184E+00   0.125E+00 0.751E-01 -.881E-01   0.140E-01 0.506E-03 0.877E-03
   -.125E+01 0.471E+02 0.950E+01   0.124E+01 -.468E+02 -.922E+01   0.868E-02 -.330E+00 -.276E+00   -.192E-03 0.216E-03 -.953E-03
   0.509E+01 0.501E+02 -.206E+01   -.483E+01 -.499E+02 0.202E+01   -.245E+00 -.198E+00 0.468E-01   -.140E-01 0.210E-03 0.187E-03
   0.192E+01 0.376E+02 -.822E+01   -.185E+01 -.376E+02 0.794E+01   -.653E-01 0.133E-01 0.284E+00   0.379E-03 0.574E-03 -.647E-03
   0.122E+01 -.471E+02 -.950E+01   -.122E+01 0.468E+02 0.922E+01   -.804E-02 0.330E+00 0.275E+00   0.915E-02 0.719E-03 0.128E-02
   0.273E+01 -.412E+02 0.107E+00   -.261E+01 0.413E+02 -.194E+00   -.125E+00 -.748E-01 0.879E-01   0.336E-02 -.639E-03 -.954E-03
   -.187E+01 -.376E+02 0.823E+01   0.181E+01 0.376E+02 -.795E+01   0.654E-01 -.144E-01 -.284E+00   -.876E-02 -.113E-02 0.976E-03
   -.495E+01 -.501E+02 0.207E+01   0.471E+01 0.499E+02 -.202E+01   0.243E+00 0.199E+00 -.451E-01   -.359E-02 0.542E-03 -.141E-02
   0.632E+01 -.228E+03 0.526E+01   -.628E+01 0.230E+03 -.524E+01   -.481E-01 -.152E+01 -.959E-02   -.260E-04 -.734E-02 -.107E-01
   -.628E+01 0.228E+03 -.519E+01   0.623E+01 -.230E+03 0.515E+01   0.452E-01 0.152E+01 0.189E-02   -.245E-03 0.174E-03 0.286E-01
 -----------------------------------------------------------------------------------------------
   0.347E-01 -.138E-01 0.420E-01   -.409E-12 0.313E-12 -.210E-12   -.186E-01 -.161E-01 -.412E-01   0.121E-02 -.409E-02 -.773E-03
 
 
 POSITION                                       TOTAL-FORCE (eV/Angst)
 -----------------------------------------------------------------------------------
      2.28320      3.68948      1.21551        -0.000189      0.000259     -0.000090
      6.84038      3.74754      1.16755        -0.000103      0.001637     -0.000092
      6.80762      3.70860      6.16555         0.000089     -0.000598     -0.000249
      2.26258      1.96347      3.68141        -0.000116      0.002049      0.000391
      6.78703      1.98248      8.63132        -0.000212      0.000602      0.000297
      2.22974      1.92447      8.67914        -0.000260      0.000483      0.000074
      0.97125      0.62720      4.58786         0.003934     -0.001399      0.003786
      0.96997      0.60695      9.53257         0.004922      0.000383      0.001104
      5.57818      0.61673      4.59571        -0.000279     -0.000683      0.002665
      5.52513      0.63571      9.51640        -0.004610     -0.006613      0.001160
      3.54540      5.03610      0.33098        -0.002452     -0.000285     -0.000438
      3.49220      5.05531      5.25141         0.000670      0.001699     -0.001185
      8.10028      5.06503      0.31428         0.002219      0.000540     -0.000628
      8.09921      5.04462      5.25878        -0.002855     -0.003666      0.001841
      3.53472      0.69164      2.83978         0.002576      0.003973      0.001877
      3.50434      0.57436      7.76953         0.000350     -0.004762     -0.000338
      8.09901      0.65064      2.75593         0.000166      0.002266      0.000553
      8.00842      0.63275      7.75482        -0.001629     -0.000750     -0.001445
      1.06186      5.03940      2.09188        -0.004102     -0.001867     -0.002324
      0.97114      5.02143      7.09084        -0.001128     -0.001127     -0.000778
      5.56591      5.09766      2.07735         0.004601      0.005126     -0.009131
      5.53611      4.98109      7.00791        -0.001864     -0.001943     -0.001785
      1.20735      2.13917      2.01987         0.000914      0.000664      0.000978
      1.18675      2.06076      7.03541         0.005610     -0.001093     -0.000084
      5.72893      2.23669      1.89963        -0.000959      0.003706      0.000462
      5.72455      2.12209      6.97317         0.002798      0.001235     -0.002967
      3.34563      3.55012      2.87378        -0.005018     -0.003689      0.004220
      3.34127      3.43545      7.94716         0.001063     -0.000741      0.000654
      7.88355      3.61124      2.81103         0.001331      0.004899      0.000241
      7.86293      3.53289      7.82702        -0.001426      0.001057     -0.002198
      3.30879      2.14036      0.42470         0.002483     -0.004032      0.004153
      3.33399      2.10341      5.34977        -0.003333      0.001105     -0.002966
      7.92979      2.15589      0.37345        -0.004394      0.000864     -0.003520
      7.91630      2.21859      5.45391        -0.001005      0.001083     -0.003162
      1.15349      3.45287      4.39267        -0.001353     -0.000510      0.002008
      1.14046      3.51613      9.47342         0.000458     -0.007000      0.003086
      5.73624      3.56870      4.49717         0.003589      0.000508      0.004024
      5.76130      3.53130      9.42202         0.000744      0.000203      0.001169
     -0.00563      0.98331      1.23514        -0.000965      0.001218     -0.000067
      9.08063      1.00132      6.16047        -0.000200      0.000318     -0.000483
      4.57038      1.01516      1.20802         0.000145      0.001193      0.000041
      4.53337      0.97302      6.15131        -0.000802      0.000543     -0.000558
     -0.01040      4.67061      3.68615        -0.000096      0.000350     -0.000143
      9.07584      4.68875      8.61173         0.000484      0.000873     -0.000078
      4.53692      4.69909      3.69567         0.000540      0.000718      0.000035
      4.49984      4.65687      8.63901        -0.000102     -0.000098      0.000495
      2.24313      3.72438      6.17963         0.000093      0.000263      0.000434
      6.82700      1.94770      3.66718        -0.000328      0.001039     -0.001040
 -----------------------------------------------------------------------------------
    total drift:                                0.017278     -0.034090     -0.000040


--------------------------------------------------------------------------------------------------------



  FREE ENERGIE OF THE ION-ELECTRON SYSTEM (eV)
  ---------------------------------------------------
  free  energy   TOTEN  =      -377.24108308 eV

  energy  without entropy=     -377.24108308  energy(sigma->0) =     -377.24108308
 


--------------------------------------------------------------------------------------------------------


    POTLOK:  cpu time    0.0174: real time    0.0174


--------------------------------------------------------------------------------------------------------


 writing wavefunctions
     LOOP+:  cpu time  958.3064: real time  958.5921
    4ORBIT:  cpu time    0.0000: real time    0.0000
 


 total charge     
 
# of ion       s       p       d       tot
------------------------------------------
    1        0.213   6.199   7.867  14.279
    2        0.214   6.201   7.875  14.290
    3        0.213   6.199   7.866  14.279
    4        0.213   6.199   7.866  14.279
    5        0.213   6.199   7.867  14.280
    6        0.214   6.201   7.874  14.289
    7        1.572   3.453   0.000   5.025
    8        1.570   3.464   0.000   5.034
    9        1.573   3.472   0.000   5.045
   10        1.572   3.454   0.000   5.026
   11        1.572   3.454   0.000   5.026
   12        1.573   3.472   0.000   5.045
   13        1.570   3.464   0.000   5.034
   14        1.572   3.453   0.000   5.025
   15        1.569   3.461   0.000   5.030
   16        1.573   3.460   0.000   5.032
   17        1.573   3.474   0.000   5.046
   18        1.570   3.457   0.000   5.027
   19        1.570   3.457   0.000   5.027
   20        1.573   3.474   0.000   5.046
   21        1.573   3.460   0.000   5.032
   22        1.569   3.461   0.000   5.030
   23        1.575   3.441   0.000   5.016
   24        1.576   3.444   0.000   5.020
   25        1.579   3.439   0.000   5.018
   26        1.575   3.439   0.000   5.015
   27        1.575   3.439   0.000   5.014
   28        1.579   3.439   0.000   5.018
   29        1.576   3.444   0.000   5.020
   30        1.575   3.441   0.000   5.016
   31        1.572   3.448   0.000   5.021
   32        1.577   3.439   0.000   5.015
   33        1.576   3.439   0.000   5.015
   34        1.577   3.443   0.000   5.020
   35        1.577   3.443   0.000   5.020
   36        1.576   3.439   0.000   5.015
   37        1.577   3.439   0.000   5.015
   38        1.572   3.448   0.000   5.021
   39        0.696   1.008   4.141   5.845
   40        0.697   1.004   4.139   5.840
   41        0.696   1.003   4.131   5.829
   42        0.695   1.004   4.145   5.844
   43        0.697   1.004   4.139   5.840
   44        0.696   1.008   4.141   5.845
   45        0.695   1.004   4.145   5.844
   46        0.696   1.002   4.131   5.829
   47        0.175   6.136   8.898  15.209
   48        0.175   6.136   8.898  15.209
--------------------------------------------------
tot         57.556 167.962  98.122 323.640
 
 BZINTS: Fermi energy:  4.350741;370.000000 electrons
         Band energy:***********;  BLOECHL correction: -0.007696

 total amount of memory used by VASP MPI-rank0   143717. kBytes
=======================================================================

   base      :      30000. kBytes
   nonlr-proj:       4224. kBytes
   fftplans  :       1587. kBytes
   grid      :       2924. kBytes
   one-center:        186. kBytes
   wavefun   :     104796. kBytes
 
  
  
 General timing and accounting informations for this job:
 ========================================================
  
                  Total CPU time used (sec):      981.405
                            User time (sec):      972.932
                          System time (sec):        8.473
                         Elapsed time (sec):      981.706
  
                   Maximum memory used (kb):      264368.
                   Average memory used (kb):           0.
  
                          Minor page faults:        72878
                          Major page faults:            0
                 Voluntary context switches:          706
