 vasp.5.4.4.18Apr17-6-g9f103f2a35 (build Jan 25 2019 22:30:10) complex          
  
 executed on             LinuxIFC date 2021.07.02  13:29:34
 running on   32 total cores
 distrk:  each k-point on   32 cores,    1 groups
 distr:  one band on NCORES_PER_BAND=   4 cores,    8 groups


--------------------------------------------------------------------------------------------------------


 INCAR:
 POTCAR:    PAW_PBE Ni_pv 06Sep2000               
 POTCAR:    PAW_PBE O 08Apr2002                   
 POTCAR:    PAW_PBE W 08Apr2002                   
 POTCAR:    PAW_PBE Ni_pv 06Sep2000               
   VRHFIN =Ni:                                                                  
   LEXCH  = PE                                                                  
   EATOM  =  3501.1230 eV,  257.3253 Ry                                         
                                                                                
   TITEL  = PAW_PBE Ni_pv 06Sep2000                                             
   LULTRA =        F    use ultrasoft PP ?                                      
   IUNSCR =        1    unscreen: 0-lin 1-nonlin 2-no                           
   RPACOR =    1.500    partial core radius                                     
   POMASS =   58.690; ZVAL   =   16.000    mass and valenz                      
   RCORE  =    2.000    outmost cutoff radius                                   
   RWIGS  =    2.000; RWIGS  =    1.058    wigner-seitz radius (au A)           
   ENMAX  =  367.986; ENMIN  =  275.989 eV                                      
   RCLOC  =    1.301    cutoff for local pot                                    
   LCOR   =        T    correct aug charges                                     
   LPAW   =        T    paw PP                                                  
   EAUG   =  703.443                                                            
   DEXC   =    0.000                                                            
   RMAX   =    2.041    core radius for proj-oper                               
   RAUG   =    1.300    factor for augmentation sphere                          
   RDEP   =    2.103    radius for radial grids                                 
   RDEPT  =    1.618    core radius for aug-charge                              
                                                                                
   Atomic configuration                                                         
    8 entries                                                                   
     n  l   j            E        occ.                                          
     1  0  0.50     -8206.4253   2.0000                                         
     2  0  0.50      -976.1748   2.0000                                         
     2  1  1.50      -839.0571   6.0000                                         
     3  0  0.50      -105.9991   2.0000                                         
     3  1  1.50       -66.4603   6.0000                                         
     3  2  2.50        -4.6458   9.0000                                         
     4  0  0.50        -4.4926   1.0000                                         
     4  3  2.50        -1.3606   0.0000                                         
   Description                                                                  
     l       E           TYP  RCUT    TYP  RCUT                                 
     1    -66.4602962     23  1.700                                             
     1     -1.3605826     23  1.700                                             
     2     -4.6457867     23  2.000                                             
     2     -6.0063693     23  2.000                                             
     0     -4.4925576     23  1.900                                             
     0     16.3626226     23  1.900                                             
  local pseudopotential read in
  partial core-charges read in
  partial kinetic energy density read in
  atomic valenz-charges read in
  non local Contribution for L=           1  read in
    real space projection operators read in
  non local Contribution for L=           1  read in
    real space projection operators read in
  non local Contribution for L=           2  read in
    real space projection operators read in
  non local Contribution for L=           2  read in
    real space projection operators read in
  non local Contribution for L=           0  read in
    real space projection operators read in
  non local Contribution for L=           0  read in
    real space projection operators read in
    PAW grid and wavefunctions read in
 
   number of l-projection  operators is LMAX  =           6
   number of lm-projection operators is LMMAX =          18
 
 POTCAR:    PAW_PBE O 08Apr2002                   
   VRHFIN =O: s2p4                                                              
   LEXCH  = PE                                                                  
   EATOM  =   432.3788 eV,   31.7789 Ry                                         
                                                                                
   TITEL  = PAW_PBE O 08Apr2002                                                 
   LULTRA =        F    use ultrasoft PP ?                                      
   IUNSCR =        1    unscreen: 0-lin 1-nonlin 2-no                           
   RPACOR =    1.200    partial core radius                                     
   POMASS =   16.000; ZVAL   =    6.000    mass and valenz                      
   RCORE  =    1.520    outmost cutoff radius                                   
   RWIGS  =    1.550; RWIGS  =    0.820    wigner-seitz radius (au A)           
   ENMAX  =  400.000; ENMIN  =  300.000 eV                                      
   ICORE  =        2    local potential                                         
   LCOR   =        T    correct aug charges                                     
   LPAW   =        T    paw PP                                                  
   EAUG   =  605.392                                                            
   DEXC   =    0.000                                                            
   RMAX   =    1.553    core radius for proj-oper                               
   RAUG   =    1.300    factor for augmentation sphere                          
   RDEP   =    1.550    radius for radial grids                                 
   RDEPT  =    1.329    core radius for aug-charge                              
                                                                                
   Atomic configuration                                                         
    4 entries                                                                   
     n  l   j            E        occ.                                          
     1  0  0.50      -514.6923   2.0000                                         
     2  0  0.50       -23.9615   2.0000                                         
     2  1  0.50        -9.0305   4.0000                                         
     3  2  1.50        -9.5241   0.0000                                         
   Description                                                                  
     l       E           TYP  RCUT    TYP  RCUT                                 
     0    -23.9615318     23  1.200                                             
     0     -9.5240782     23  1.200                                             
     1     -9.0304911     23  1.520                                             
     1      8.1634956     23  1.520                                             
     2     -9.5240782      7  1.500                                             
  local pseudopotential read in
  partial core-charges read in
  partial kinetic energy density read in
  kinetic energy density of atom read in
  atomic valenz-charges read in
  non local Contribution for L=           0  read in
    real space projection operators read in
  non local Contribution for L=           0  read in
    real space projection operators read in
  non local Contribution for L=           1  read in
    real space projection operators read in
  non local Contribution for L=           1  read in
    real space projection operators read in
    PAW grid and wavefunctions read in
 
   number of l-projection  operators is LMAX  =           4
   number of lm-projection operators is LMMAX =           8
 
 POTCAR:    PAW_PBE W 08Apr2002                   
   VRHFIN =W : 6s5d                                                             
   LEXCH  = PE                                                                  
   EATOM  =   204.6103 eV,   15.0384 Ry                                         
                                                                                
   TITEL  = PAW_PBE W 08Apr2002                                                 
   LULTRA =        F    use ultrasoft PP ?                                      
   IUNSCR =        1    unscreen: 0-lin 1-nonlin 2-no                           
   RPACOR =    2.330    partial core radius                                     
   POMASS =  183.850; ZVAL   =    6.000    mass and valenz                      
   RCORE  =    2.750    outmost cutoff radius                                   
   RWIGS  =    2.750; RWIGS  =    1.455    wigner-seitz radius (au A)           
   ENMAX  =  223.057; ENMIN  =  167.293 eV                                      
   RCLOC  =    2.147    cutoff for local pot                                    
   LCOR   =        T    correct aug charges                                     
   LPAW   =        T    paw PP                                                  
   EAUG   =  373.438                                                            
   DEXC   =    0.000                                                            
   RMAX   =    2.801    core radius for proj-oper                               
   RAUG   =    1.300    factor for augmentation sphere                          
   RDEP   =    2.886    radius for radial grids                                 
   RDEPT  =    2.230    core radius for aug-charge                              
                                                                                
   Atomic configuration                                                         
   16 entries                                                                   
     n  l   j            E        occ.                                          
     1  0  0.50    -69465.5836   2.0000                                         
     2  0  0.50    -11986.2642   2.0000                                         
     2  1  1.50    -10479.8616   6.0000                                         
     3  0  0.50     -2759.0758   2.0000                                         
     3  1  1.50     -2313.1857   6.0000                                         
     3  2  2.50     -1801.1185  10.0000                                         
     4  0  0.50      -567.6791   2.0000                                         
     4  1  1.50      -421.4694   6.0000                                         
     4  2  2.50      -236.3473  10.0000                                         
     4  3  3.50       -31.2666  14.0000                                         
     5  0  0.50       -77.1085   2.0000                                         
     5  1  1.50       -41.3856   6.0000                                         
     5  2  2.50        -3.3185   5.0000                                         
     6  0  0.50        -5.1438   1.0000                                         
     6  1  0.50        -3.8096   0.0000                                         
     5  3  2.50        -1.3606   0.0000                                         
   Description                                                                  
     l       E           TYP  RCUT    TYP  RCUT                                 
     2     -3.3185288     23  2.500                                             
     2     -1.5965414     23  2.500                                             
     0     -5.1438054     23  2.500                                             
     0      4.9117504     23  2.500                                             
     1      2.7211652     23  2.750                                             
     1     27.2116520     23  2.750                                             
  local pseudopotential read in
  partial core-charges read in
  partial kinetic energy density read in
  atomic valenz-charges read in
  non local Contribution for L=           2  read in
    real space projection operators read in
  non local Contribution for L=           2  read in
    real space projection operators read in
  non local Contribution for L=           0  read in
    real space projection operators read in
  non local Contribution for L=           0  read in
    real space projection operators read in
  non local Contribution for L=           1  read in
    real space projection operators read in
  non local Contribution for L=           1  read in
    real space projection operators read in
    PAW grid and wavefunctions read in
 
   number of l-projection  operators is LMAX  =           6
   number of lm-projection operators is LMMAX =          18
 
 Optimization of the real space projectors (new method)

 maximal supplied QI-value         = 18.90
 optimisation between [QCUT,QGAM] = [ 11.34, 22.87] = [ 36.00,146.41] Ry 
 Optimized for a Real-space Cutoff    1.35 Angstroem

   l    n(q)    QCUT    max X(q) W(low)/X(q) W(high)/X(q)  e(spline) 
   1      9    11.338     2.836    0.21E-04    0.44E-04    0.96E-07
   1      9    11.338     4.023    0.81E-04    0.11E-03    0.22E-06
   2      8    11.338    73.368    0.36E-03    0.40E-03    0.33E-06
   2      8    11.338    69.010    0.37E-03    0.41E-03    0.34E-06
   0      9    11.338    54.797    0.66E-04    0.74E-04    0.73E-07
   0      9    11.338    24.266    0.52E-04    0.65E-04    0.65E-07
 Optimization of the real space projectors (new method)

 maximal supplied QI-value         = 24.76
 optimisation between [QCUT,QGAM] = [ 11.39, 22.77] = [ 36.31,145.25] Ry 
 Optimized for a Real-space Cutoff    1.00 Angstroem

   l    n(q)    QCUT    max X(q) W(low)/X(q) W(high)/X(q)  e(spline) 
   0      7    11.387    20.381    0.39E-03    0.13E-02    0.15E-06
   0      7    11.387    15.268    0.42E-03    0.14E-02    0.17E-06
   1      6    11.387     5.964    0.41E-03    0.11E-02    0.17E-06
   1      6    11.387     5.382    0.39E-03    0.87E-03    0.15E-06
 Optimization of the real space projectors (new method)

 maximal supplied QI-value         = 13.61
 optimisation between [QCUT,QGAM] = [ 11.43, 22.86] = [ 36.58,146.31] Ry 
 Optimized for a Real-space Cutoff    1.56 Angstroem

   l    n(q)    QCUT    max X(q) W(low)/X(q) W(high)/X(q)  e(spline) 
   2     10    11.429   130.855    0.22E-03    0.64E-03    0.11E-05
   2     10    11.429   114.007    0.22E-03    0.64E-03    0.11E-05
   0     11    11.429    84.709    0.39E-04    0.67E-04    0.23E-06
   0     11    11.429    49.163    0.35E-04    0.62E-04    0.21E-06
   1     10    11.429    15.765    0.84E-04    0.15E-03    0.24E-06
   1     10    11.429    10.638    0.58E-04    0.12E-03    0.19E-06
  PAW_PBE Ni_pv 06Sep2000               :
 energy of atom  1       EATOM=-3501.1230
 kinetic energy error for atom=    0.0690 (will be added to EATOM!!)
  PAW_PBE O 08Apr2002                   :
 energy of atom  2       EATOM= -432.3788
 kinetic energy error for atom=    0.0224 (will be added to EATOM!!)
  PAW_PBE W 08Apr2002                   :
 energy of atom  3       EATOM= -204.6103
 kinetic energy error for atom=    0.0017 (will be added to EATOM!!)
 
 
 POSCAR: Ni O4 W                                 
  positions in direct lattice
  velocities in cartesian coordinates
 exchange correlation table for  LEXCH =        8
   RHO(1)=    0.500       N(1)  =     2000
   RHO(2)=  100.500       N(2)  =     4000
 


--------------------------------------------------------------------------------------------------------


 ion  position               nearest neighbor table
   1  0.250  0.653  0.250-  19 2.03  15 2.03   7 2.06  11 2.06  13 2.07  17 2.07
   2  0.750  0.653  0.250-  20 2.03  16 2.03  12 2.06   8 2.06  14 2.07  18 2.07
   3  0.250  0.347  0.750-  13 2.03  17 2.03   9 2.06   5 2.06  15 2.07  19 2.07
   4  0.750  0.347  0.750-  14 2.03  18 2.03  10 2.06   6 2.06  20 2.07  16 2.07
   5  0.111  0.110  0.929-  21 1.93   3 2.06  23 2.12
   6  0.611  0.110  0.929-  22 1.93   4 2.06  24 2.12
   7  0.389  0.890  0.071-  24 1.93   1 2.06  22 2.12
   8  0.889  0.890  0.071-  23 1.93   2 2.06  21 2.12
   9  0.389  0.110  0.571-  22 1.93   3 2.06  24 2.12
  10  0.889  0.110  0.571-  21 1.93   4 2.06  23 2.12
  11  0.111  0.890  0.429-  23 1.93   1 2.06  21 2.12
  12  0.611  0.890  0.429-  24 1.93   2 2.06  22 2.12
  13  0.131  0.378  0.406-  21 1.83   3 2.03   1 2.07
  14  0.631  0.378  0.406-  22 1.83   4 2.03   2 2.07
  15  0.369  0.622  0.594-  24 1.83   1 2.03   3 2.07
  16  0.869  0.622  0.594-  23 1.83   2 2.03   4 2.07
  17  0.369  0.378  0.094-  22 1.83   3 2.03   1 2.07
  18  0.869  0.378  0.094-  21 1.83   4 2.03   2 2.07
  19  0.131  0.622  0.906-  23 1.83   1 2.03   3 2.07
  20  0.631  0.622  0.906-  24 1.83   2 2.03   4 2.07
  21  1.000  0.177  0.250-  18 1.83  13 1.83  10 1.93   5 1.93  11 2.12   8 2.12  23 3.20  23 3.20

  22  0.500  0.177  0.250-  17 1.83  14 1.83   6 1.93   9 1.93   7 2.12  12 2.12  24 3.20  24 3.20

  23  1.000  0.823  0.750-  19 1.83  16 1.83   8 1.93  11 1.93   5 2.12  10 2.12  21 3.20  21 3.20

  24  0.500  0.823  0.750-  15 1.83  20 1.83  12 1.93   7 1.93   9 2.12   6 2.12  22 3.20  22 3.20

 

IMPORTANT INFORMATION: All symmetrisations will be switched off!
NOSYMM: (Re-)initialisation of all symmetry stuff for point group C_1.

 
 
 KPOINTS: k-points for high-symmetry              
  interpolating k-points between supplied coordinates
  k-points in reciprocal lattice
Space group operators:
 irot       det(A)        alpha          n_x          n_y          n_z        tau_x        tau_y        tau_z
    1     1.000000     0.000000     1.000000     0.000000     0.000000     0.000000     0.000000     0.000000


--------------------------------------------------------------------------------------------------------




 Dimension of arrays:
   k-points           NKPTS =    240   k-points in BZ     NKDIM =    240   number of bands    NBANDS=    120
   number of dos      NEDOS =   2001   number of ions     NIONS =     24
   non local maximal  LDIM  =      6   non local SUM 2l+1 LMDIM =     18
   total plane-waves  NPLWV =  44800
   max r-space proj   IRMAX =   2816   max aug-charges    IRDMAX=  10048
   dimension x,y,z NGX =    50 NGY =   32 NGZ =   28
   dimension x,y,z NGXF=   100 NGYF=   64 NGZF=   56
   support grid    NGXF=   100 NGYF=   64 NGZF=   56
   ions per type =               4  16   4
   NGX,Y,Z   is equivalent  to a cutoff of   9.05,  9.32,  9.39 a.u.
   NGXF,Y,Z  is equivalent  to a cutoff of  18.10, 18.65, 18.79 a.u.

 SYSTEM =  NiWO4                                   
 POSCAR =  Ni O4 W                                 

 Startparameter for this run:
   NWRITE =      2    write-flag & timer
   PREC   = normal    normal or accurate (medium, high low for compatibility)
   ISTART =      0    job   : 0-new  1-cont  2-samecut
   ICHARG =      2    charge: 1-file 2-atom 10-const
   ISPIN  =      2    spin polarized calculation?
   LNONCOLLINEAR =      F non collinear calculations
   LSORBIT =      F    spin-orbit coupling
   INIWAV =      1    electr: 0-lowe 1-rand  2-diag
   LASPH  =      F    aspherical Exc in radial PAW
   METAGGA=      F    non-selfconsistent MetaGGA calc.

 Electronic Relaxation 1
   ENCUT  =  500.0 eV  36.75 Ry    6.06 a.u.  16.74 10.40  9.03*2*pi/ulx,y,z
   ENINI  =  500.0     initial cutoff
   ENAUG  =  703.4 eV  augmentation charge cutoff
   NELM   =    400;   NELMIN=  2; NELMDL= -5     # of ELM steps 
   EDIFF  = 0.1E-04   stopping-criterion for ELM
   LREAL  =      T    real-space projection
   NLSPLINE    = F    spline interpolate recip. space projectors
   LCOMPAT=      F    compatible to vasp.4.4
   GGA_COMPAT  = T    GGA compatible to vasp.4.4-vasp.4.6
   LMAXPAW     = -100 max onsite density
   LMAXMIX     =    4 max onsite mixed and CHGCAR
   VOSKOWN=      0    Vosko Wilk Nusair interpolation
   ROPT   =   -0.00050  -0.00050  -0.00050
 Ionic relaxation
   EDIFFG = 0.1E-03   stopping-criterion for IOM
   NSW    =      0    number of steps for IOM
   NBLOCK =      1;   KBLOCK =      1    inner block; outer block 
   IBRION =     -1    ionic relax: 0-MD 1-quasi-New 2-CG
   NFREE  =      0    steps in history (QN), initial steepest desc. (CG)
   ISIF   =      2    stress and relaxation
   IWAVPR =     10    prediction:  0-non 1-charg 2-wave 3-comb
   ISYM   =      0    0-nonsym 1-usesym 2-fastsym
   LCORR  =      T    Harris-Foulkes like correction to forces

   POTIM  = 0.5000    time-step for ionic-motion
   TEIN   =    0.0    initial temperature
   TEBEG  =    0.0;   TEEND  =   0.0 temperature during run
   SMASS  =  -3.00    Nose mass-parameter (am)
   estimated Nose-frequenzy (Omega)   =  0.10E-29 period in steps =****** mass=  -0.193E-26a.u.
   SCALEE = 1.0000    scale energy and forces
   NPACO  =    256;   APACO  = 16.0  distance and # of slots for P.C.
   PSTRESS=    0.0 pullay stress

  Mass of Ions in am
   POMASS =  58.69 16.00183.85
  Ionic Valenz
   ZVAL   =  16.00  6.00  6.00
  Atomic Wigner-Seitz radii
   RWIGS  =  -1.00 -1.00 -1.00
  virtual crystal weights 
   VCA    =   1.00  1.00  1.00
   NELECT =     184.0000    total number of electrons
   NUPDOWN=      -1.0000    fix difference up-down

 DOS related values:
   EMIN   =  10.00;   EMAX   =-10.00  energy-range for DOS
   EFERMI =   0.00
   ISMEAR =     0;   SIGMA  =   0.10  broadening in eV -4-tet -1-fermi 0-gaus

 Electronic relaxation 2 (details)
   IALGO  =     38    algorithm
   LDIAG  =      T    sub-space diagonalisation (order eigenvalues)
   LSUBROT=      F    optimize rotation matrix (better conditioning)
   TURBO    =      0    0=normal 1=particle mesh
   IRESTART =      0    0=no restart 2=restart with 2 vectors
   NREBOOT  =      0    no. of reboots
   NMIN     =      0    reboot dimension
   EREF     =   0.00    reference energy to select bands
   IMIX   =      4    mixing-type and parameters
     AMIX     =   0.40;   BMIX     =  1.00
     AMIX_MAG =   1.60;   BMIX_MAG =  1.00
     AMIN     =   0.10
     WC   =   100.;   INIMIX=   1;  MIXPRE=   1;  MAXMIX= -45

 Intra band minimization:
   WEIMIN = 0.0000     energy-eigenvalue tresh-hold
   EBREAK =  0.21E-07  absolut break condition
   DEPER  =   0.30     relativ break condition  

   TIME   =   0.40     timestep for ELM

  volume/ion in A,a.u.               =      10.82        73.00
  Fermi-wavevector in a.u.,A,eV,Ry     =   1.459590  2.758225 28.985894  2.130403
  Thomas-Fermi vector in A             =   2.576139
 
 Write flags
   LWAVE        =      T    write WAVECAR
   LDOWNSAMPLE  =      F    k-point downsampling of WAVECAR
   LCHARG       =      T    write CHGCAR
   LVTOT        =      F    write LOCPOT, total local potential
   LVHAR        =      F    write LOCPOT, Hartree potential only
   LELF         =      F    write electronic localiz. function (ELF)
   LORBIT       =     11    0 simple, 1 ext, 2 COOP (PROOUT), +10 PAW based schemes


 Dipole corrections
   LMONO  =      F    monopole corrections only (constant potential shift)
   LDIPOL =      F    correct potential (dipole corrections)
   IDIPOL =      0    1-x, 2-y, 3-z, 4-all directions 
   EPSILON=  1.0000000 bulk dielectric constant

 LDA+U is selected, type is set to LDAUTYPE =  2
   angular momentum for each species LDAUL =     2   -1   -1
   U (eV)           for each species LDAUU =   6.0  0.0  0.0
   J (eV)           for each species LDAUJ =   0.0  0.0  0.0
 Exchange correlation treatment:
   GGA     =    PE    GGA type
   LEXCH   =     8    internal setting for exchange type
   VOSKOWN=      0    Vosko Wilk Nusair interpolation
   LHFCALC =     F    Hartree Fock is set to
   LHFONE  =     F    Hartree Fock one center treatment
   AEXX    =    0.0000 exact exchange contribution

 Linear response parameters
   LEPSILON=     F    determine dielectric tensor
   LRPA    =     F    only Hartree local field effects (RPA)
   LNABLA  =     F    use nabla operator in PAW spheres
   LVEL    =     F    velocity operator in full k-point grid
   LINTERFAST=   F  fast interpolation
   KINTER  =     0    interpolate to denser k-point grid
   CSHIFT  =0.1000    complex shift for real part using Kramers Kronig
   OMEGAMAX=  -1.0    maximum frequency
   DEG_THRESHOLD= 0.2000000E-02 threshold for treating states as degnerate
   RTIME   =   -0.100 relaxation time in fs
  (WPLASMAI=    0.000 imaginary part of plasma frequency in eV, 0.658/RTIME)
   DFIELD  = 0.0000000 0.0000000 0.0000000 field for delta impulse in time
 
 Orbital magnetization related:
   ORBITALMAG=     F  switch on orbital magnetization
   LCHIMAG   =     F  perturbation theory with respect to B field
   DQ        =  0.001000  dq finite difference perturbation B field
   LLRAUG    =     F  two centre corrections for induced B field



--------------------------------------------------------------------------------------------------------


 Static calculation
 charge density and potential will be updated during run
 spin polarized calculation
 Variant of blocked Davidson
 Davidson routine will perform the subspace rotation
 perform sub-space diagonalisation
    after iterative eigenvector-optimisation
 modified Broyden-mixing scheme, WC =      100.0
 initial mixing is a Kerker type mixing with AMIX =  0.4000 and BMIX =      1.0000
 Hartree-type preconditioning will be used
 using additional bands           28
 real space projection scheme for non local part
 use partial core corrections
 calculate Harris-corrections to forces 
   (improved forces if not selfconsistent)
 use gradient corrections 
 use of overlap-Matrix (Vanderbilt PP)
 Gauss-broadening in eV      SIGMA  =   0.10


--------------------------------------------------------------------------------------------------------


  energy-cutoff  :      500.00
  volume of cell :      259.63
      direct lattice vectors                 reciprocal lattice vectors
     9.183406645 -0.000104252  0.048264614     0.108888386  0.000001236  0.000697706
    -0.000064534  5.705387348 -0.000037879     0.000001984  0.175272938  0.000001163
    -0.031749505 -0.000032507  4.955027406    -0.001060631  0.000001328  0.201808435

  length of vectors
     9.183533475  5.705387349  4.955129123     0.108890621  0.175272938  0.201811222


 
 k-points in units of 2pi/SCALE and weight: k-points for high-symmetry              
   0.05444419  0.00000062  0.00034885       0.004
   0.05256681  0.00000060  0.00033682       0.004
   0.05068942  0.00000058  0.00032479       0.004
   0.04881204  0.00000055  0.00031276       0.004
   0.04693465  0.00000053  0.00030074       0.004
   0.04505726  0.00000051  0.00028871       0.004
   0.04317988  0.00000049  0.00027668       0.004
   0.04130249  0.00000047  0.00026465       0.004
   0.03942511  0.00000045  0.00025262       0.004
   0.03754772  0.00000043  0.00024059       0.004
   0.03567033  0.00000040  0.00022856       0.004
   0.03379295  0.00000038  0.00021653       0.004
   0.03191556  0.00000036  0.00020450       0.004
   0.03003818  0.00000034  0.00019247       0.004
   0.02816079  0.00000032  0.00018044       0.004
   0.02628340  0.00000030  0.00016841       0.004
   0.02440602  0.00000028  0.00015638       0.004
   0.02252863  0.00000026  0.00014435       0.004
   0.02065125  0.00000023  0.00013232       0.004
   0.01877386  0.00000021  0.00012029       0.004
   0.01689647  0.00000019  0.00010826       0.004
   0.01501909  0.00000017  0.00009624       0.004
   0.01314170  0.00000015  0.00008421       0.004
   0.01126432  0.00000013  0.00007218       0.004
   0.00938693  0.00000011  0.00006015       0.004
   0.00750954  0.00000009  0.00004812       0.004
   0.00563216  0.00000006  0.00003609       0.004
   0.00375477  0.00000004  0.00002406       0.004
   0.00187739  0.00000002  0.00001203       0.004
   0.00000000  0.00000000  0.00000000       0.004
   0.00000000  0.00000000  0.00000000       0.004
   0.00000003  0.00302195  0.00000002       0.004
   0.00000007  0.00604389  0.00000004       0.004
   0.00000010  0.00906584  0.00000006       0.004
   0.00000014  0.01208779  0.00000008       0.004
   0.00000017  0.01510974  0.00000010       0.004
   0.00000021  0.01813168  0.00000012       0.004
   0.00000024  0.02115363  0.00000014       0.004
   0.00000027  0.02417558  0.00000016       0.004
   0.00000031  0.02719752  0.00000018       0.004
   0.00000034  0.03021947  0.00000020       0.004
   0.00000038  0.03324142  0.00000022       0.004
   0.00000041  0.03626337  0.00000024       0.004
   0.00000044  0.03928531  0.00000026       0.004
   0.00000048  0.04230726  0.00000028       0.004
   0.00000051  0.04532921  0.00000030       0.004
   0.00000055  0.04835116  0.00000032       0.004
   0.00000058  0.05137310  0.00000034       0.004
   0.00000062  0.05439505  0.00000036       0.004
   0.00000065  0.05741700  0.00000038       0.004
   0.00000068  0.06043894  0.00000040       0.004
   0.00000072  0.06346089  0.00000042       0.004
   0.00000075  0.06648284  0.00000044       0.004
   0.00000079  0.06950479  0.00000046       0.004
   0.00000082  0.07252673  0.00000048       0.004
   0.00000086  0.07554868  0.00000050       0.004
   0.00000089  0.07857063  0.00000052       0.004
   0.00000092  0.08159257  0.00000054       0.004
   0.00000096  0.08461452  0.00000056       0.004
   0.00000099  0.08763647  0.00000058       0.004
   0.00000099  0.08763647  0.00000058       0.004
   0.00187838  0.08763649  0.00001261       0.004
   0.00375576  0.08763651  0.00002464       0.004
   0.00563315  0.08763653  0.00003667       0.004
   0.00751054  0.08763655  0.00004870       0.004
   0.00938792  0.08763658  0.00006073       0.004
   0.01126531  0.08763660  0.00007276       0.004
   0.01314269  0.08763662  0.00008479       0.004
   0.01502008  0.08763664  0.00009682       0.004
   0.01689747  0.08763666  0.00010885       0.004
   0.01877485  0.08763668  0.00012088       0.004
   0.02065224  0.08763670  0.00013290       0.004
   0.02252962  0.08763672  0.00014493       0.004
   0.02440701  0.08763675  0.00015696       0.004
   0.02628440  0.08763677  0.00016899       0.004
   0.02816178  0.08763679  0.00018102       0.004
   0.03003917  0.08763681  0.00019305       0.004
   0.03191655  0.08763683  0.00020508       0.004
   0.03379394  0.08763685  0.00021711       0.004
   0.03567133  0.08763687  0.00022914       0.004
   0.03754871  0.08763690  0.00024117       0.004
   0.03942610  0.08763692  0.00025320       0.004
   0.04130348  0.08763694  0.00026523       0.004
   0.04318087  0.08763696  0.00027726       0.004
   0.04505825  0.08763698  0.00028929       0.004
   0.04693564  0.08763700  0.00030132       0.004
   0.04881303  0.08763702  0.00031335       0.004
   0.05069041  0.08763704  0.00032538       0.004
   0.05256780  0.08763707  0.00033740       0.004
   0.05444518  0.08763709  0.00034943       0.004
   0.05444518  0.08763709  0.00034943       0.004
   0.05254948  0.08461514  0.00381684       0.004
   0.05065377  0.08159320  0.00728425       0.004
   0.04875806  0.07857125  0.01075165       0.004
   0.04686236  0.07554930  0.01421906       0.004
   0.04496665  0.07252736  0.01768647       0.004
   0.04307094  0.06950541  0.02115387       0.004
   0.04117524  0.06648347  0.02462128       0.004
   0.03927953  0.06346152  0.02808868       0.004
   0.03738382  0.06043958  0.03155609       0.004
   0.03548812  0.05741763  0.03502350       0.004
   0.03359241  0.05439569  0.03849090       0.004
   0.03169670  0.05137374  0.04195831       0.004
   0.02980099  0.04835179  0.04542572       0.004
   0.02790529  0.04532985  0.04889312       0.004
   0.02600958  0.04230790  0.05236053       0.004
   0.02411387  0.03928596  0.05582794       0.004
   0.02221817  0.03626401  0.05929534       0.004
   0.02032246  0.03324207  0.06276275       0.004
   0.01842675  0.03022012  0.06623015       0.004
   0.01653105  0.02719817  0.06969756       0.004
   0.01463534  0.02417623  0.07316497       0.004
   0.01273963  0.02115428  0.07663237       0.004
   0.01084393  0.01813234  0.08009978       0.004
   0.00894822  0.01511039  0.08356719       0.004
   0.00705251  0.01208845  0.08703459       0.004
   0.00515681  0.00906650  0.09050200       0.004
   0.00326110  0.00604456  0.09396940       0.004
   0.00136539  0.00302261  0.09743681       0.004
  -0.00053032  0.00000066  0.10090422       0.004
  -0.00053032  0.00000066  0.10090422       0.004
   0.00134707  0.00000069  0.10091625       0.004
   0.00322446  0.00000071  0.10092828       0.004
   0.00510184  0.00000073  0.10094031       0.004
   0.00697923  0.00000075  0.10095234       0.004
   0.00885661  0.00000077  0.10096436       0.004
   0.01073400  0.00000079  0.10097639       0.004
   0.01261139  0.00000081  0.10098842       0.004
   0.01448877  0.00000083  0.10100045       0.004
   0.01636616  0.00000086  0.10101248       0.004
   0.01824354  0.00000088  0.10102451       0.004
   0.02012093  0.00000090  0.10103654       0.004
   0.02199832  0.00000092  0.10104857       0.004
   0.02387570  0.00000094  0.10106060       0.004
   0.02575309  0.00000096  0.10107263       0.004
   0.02763047  0.00000098  0.10108466       0.004
   0.02950786  0.00000100  0.10109669       0.004
   0.03138525  0.00000103  0.10110872       0.004
   0.03326263  0.00000105  0.10112075       0.004
   0.03514002  0.00000107  0.10113278       0.004
   0.03701740  0.00000109  0.10114481       0.004
   0.03889479  0.00000111  0.10115684       0.004
   0.04077218  0.00000113  0.10116886       0.004
   0.04264956  0.00000115  0.10118089       0.004
   0.04452695  0.00000118  0.10119292       0.004
   0.04640433  0.00000120  0.10120495       0.004
   0.04828172  0.00000122  0.10121698       0.004
   0.05015911  0.00000124  0.10122901       0.004
   0.05203649  0.00000126  0.10124104       0.004
   0.05391388  0.00000128  0.10125307       0.004
   0.05391388  0.00000128  0.10125307       0.004
   0.05205478  0.00000124  0.09776159       0.004
   0.05019568  0.00000119  0.09427010       0.004
   0.04833658  0.00000115  0.09077861       0.004
   0.04647748  0.00000111  0.08728713       0.004
   0.04461838  0.00000106  0.08379564       0.004
   0.04275928  0.00000102  0.08030416       0.004
   0.04090018  0.00000097  0.07681267       0.004
   0.03904108  0.00000093  0.07332119       0.004
   0.03718198  0.00000088  0.06982970       0.004
   0.03532289  0.00000084  0.06633822       0.004
   0.03346379  0.00000080  0.06284673       0.004
   0.03160469  0.00000075  0.05935525       0.004
   0.02974559  0.00000071  0.05586376       0.004
   0.02788649  0.00000066  0.05237228       0.004
   0.02602739  0.00000062  0.04888079       0.004
   0.02416829  0.00000057  0.04538931       0.004
   0.02230919  0.00000053  0.04189782       0.004
   0.02045009  0.00000049  0.03840634       0.004
   0.01859099  0.00000044  0.03491485       0.004
   0.01673189  0.00000040  0.03142337       0.004
   0.01487279  0.00000035  0.02793188       0.004
   0.01301369  0.00000031  0.02444040       0.004
   0.01115460  0.00000027  0.02094891       0.004
   0.00929550  0.00000022  0.01745743       0.004
   0.00743640  0.00000018  0.01396594       0.004
   0.00557730  0.00000013  0.01047446       0.004
   0.00371820  0.00000009  0.00698297       0.004
   0.00185910  0.00000004  0.00349149       0.004
   0.00000000  0.00000000  0.00000000       0.004
   0.00000000  0.00000000  0.00000000       0.004
  -0.00001825  0.00302197  0.00347948       0.004
  -0.00003651  0.00604394  0.00695895       0.004
  -0.00005476  0.00906591  0.01043843       0.004
  -0.00007301  0.01208788  0.01391790       0.004
  -0.00009126  0.01510985  0.01739738       0.004
  -0.00010952  0.01813182  0.02087685       0.004
  -0.00012777  0.02115379  0.02435633       0.004
  -0.00014602  0.02417576  0.02783581       0.004
  -0.00016427  0.02719773  0.03131528       0.004
  -0.00018253  0.03021970  0.03479476       0.004
  -0.00020078  0.03324167  0.03827423       0.004
  -0.00021903  0.03626364  0.04175371       0.004
  -0.00023728  0.03928561  0.04523319       0.004
  -0.00025554  0.04230758  0.04871266       0.004
  -0.00027379  0.04532955  0.05219214       0.004
  -0.00029204  0.04835152  0.05567161       0.004
  -0.00031029  0.05137349  0.05915109       0.004
  -0.00032855  0.05439546  0.06263056       0.004
  -0.00034680  0.05741743  0.06611004       0.004
  -0.00036505  0.06043940  0.06958952       0.004
  -0.00038330  0.06346137  0.07306899       0.004
  -0.00040156  0.06648334  0.07654847       0.004
  -0.00041981  0.06950531  0.08002794       0.004
  -0.00043806  0.07252728  0.08350742       0.004
  -0.00045631  0.07554925  0.08698690       0.004
  -0.00047457  0.07857122  0.09046637       0.004
  -0.00049282  0.08159319  0.09394585       0.004
  -0.00051107  0.08461516  0.09742532       0.004
  -0.00052932  0.08763713  0.10090480       0.004
  -0.00052932  0.08763713  0.10090480       0.004
   0.00134806  0.08763715  0.10091683       0.004
   0.00322545  0.08763718  0.10092886       0.004
   0.00510283  0.08763720  0.10094089       0.004
   0.00698022  0.08763722  0.10095292       0.004
   0.00885761  0.08763724  0.10096495       0.004
   0.01073499  0.08763726  0.10097698       0.004
   0.01261238  0.08763728  0.10098900       0.004
   0.01448976  0.08763730  0.10100103       0.004
   0.01636715  0.08763732  0.10101306       0.004
   0.01824454  0.08763735  0.10102509       0.004
   0.02012192  0.08763737  0.10103712       0.004
   0.02199931  0.08763739  0.10104915       0.004
   0.02387669  0.08763741  0.10106118       0.004
   0.02575408  0.08763743  0.10107321       0.004
   0.02763147  0.08763745  0.10108524       0.004
   0.02950885  0.08763747  0.10109727       0.004
   0.03138624  0.08763750  0.10110930       0.004
   0.03326362  0.08763752  0.10112133       0.004
   0.03514101  0.08763754  0.10113336       0.004
   0.03701840  0.08763756  0.10114539       0.004
   0.03889578  0.08763758  0.10115742       0.004
   0.04077317  0.08763760  0.10116945       0.004
   0.04265055  0.08763762  0.10118148       0.004
   0.04452794  0.08763764  0.10119350       0.004
   0.04640533  0.08763767  0.10120553       0.004
   0.04828271  0.08763769  0.10121756       0.004
   0.05016010  0.08763771  0.10122959       0.004
   0.05203748  0.08763773  0.10124162       0.004
   0.05391487  0.08763775  0.10125365       0.004
 
 k-points in reciprocal lattice and weights: k-points for high-symmetry              
   0.50000000  0.00000000  0.00000000       0.004
   0.48275862  0.00000000  0.00000000       0.004
   0.46551724  0.00000000  0.00000000       0.004
   0.44827586  0.00000000  0.00000000       0.004
   0.43103448  0.00000000  0.00000000       0.004
   0.41379310  0.00000000  0.00000000       0.004
   0.39655172  0.00000000  0.00000000       0.004
   0.37931034  0.00000000  0.00000000       0.004
   0.36206897  0.00000000  0.00000000       0.004
   0.34482759  0.00000000  0.00000000       0.004
   0.32758621  0.00000000  0.00000000       0.004
   0.31034483  0.00000000  0.00000000       0.004
   0.29310345  0.00000000  0.00000000       0.004
   0.27586207  0.00000000  0.00000000       0.004
   0.25862069  0.00000000  0.00000000       0.004
   0.24137931  0.00000000  0.00000000       0.004
   0.22413793  0.00000000  0.00000000       0.004
   0.20689655  0.00000000  0.00000000       0.004
   0.18965517  0.00000000  0.00000000       0.004
   0.17241379  0.00000000  0.00000000       0.004
   0.15517241  0.00000000  0.00000000       0.004
   0.13793103  0.00000000  0.00000000       0.004
   0.12068966  0.00000000  0.00000000       0.004
   0.10344828  0.00000000  0.00000000       0.004
   0.08620690  0.00000000  0.00000000       0.004
   0.06896552  0.00000000  0.00000000       0.004
   0.05172414  0.00000000  0.00000000       0.004
   0.03448276  0.00000000  0.00000000       0.004
   0.01724138  0.00000000  0.00000000       0.004
   0.00000000  0.00000000  0.00000000       0.004
   0.00000000  0.00000000  0.00000000       0.004
   0.00000000  0.01724138  0.00000000       0.004
   0.00000000  0.03448276  0.00000000       0.004
   0.00000000  0.05172414  0.00000000       0.004
   0.00000000  0.06896552  0.00000000       0.004
   0.00000000  0.08620690  0.00000000       0.004
   0.00000000  0.10344828  0.00000000       0.004
   0.00000000  0.12068966  0.00000000       0.004
   0.00000000  0.13793103  0.00000000       0.004
   0.00000000  0.15517241  0.00000000       0.004
   0.00000000  0.17241379  0.00000000       0.004
   0.00000000  0.18965517  0.00000000       0.004
   0.00000000  0.20689655  0.00000000       0.004
   0.00000000  0.22413793  0.00000000       0.004
   0.00000000  0.24137931  0.00000000       0.004
   0.00000000  0.25862069  0.00000000       0.004
   0.00000000  0.27586207  0.00000000       0.004
   0.00000000  0.29310345  0.00000000       0.004
   0.00000000  0.31034483  0.00000000       0.004
   0.00000000  0.32758621  0.00000000       0.004
   0.00000000  0.34482759  0.00000000       0.004
   0.00000000  0.36206897  0.00000000       0.004
   0.00000000  0.37931034  0.00000000       0.004
   0.00000000  0.39655172  0.00000000       0.004
   0.00000000  0.41379310  0.00000000       0.004
   0.00000000  0.43103448  0.00000000       0.004
   0.00000000  0.44827586  0.00000000       0.004
   0.00000000  0.46551724  0.00000000       0.004
   0.00000000  0.48275862  0.00000000       0.004
   0.00000000  0.50000000  0.00000000       0.004
   0.00000000  0.50000000  0.00000000       0.004
   0.01724138  0.50000000  0.00000000       0.004
   0.03448276  0.50000000  0.00000000       0.004
   0.05172414  0.50000000  0.00000000       0.004
   0.06896552  0.50000000  0.00000000       0.004
   0.08620690  0.50000000  0.00000000       0.004
   0.10344828  0.50000000  0.00000000       0.004
   0.12068966  0.50000000  0.00000000       0.004
   0.13793103  0.50000000  0.00000000       0.004
   0.15517241  0.50000000  0.00000000       0.004
   0.17241379  0.50000000  0.00000000       0.004
   0.18965517  0.50000000  0.00000000       0.004
   0.20689655  0.50000000  0.00000000       0.004
   0.22413793  0.50000000  0.00000000       0.004
   0.24137931  0.50000000  0.00000000       0.004
   0.25862069  0.50000000  0.00000000       0.004
   0.27586207  0.50000000  0.00000000       0.004
   0.29310345  0.50000000  0.00000000       0.004
   0.31034483  0.50000000  0.00000000       0.004
   0.32758621  0.50000000  0.00000000       0.004
   0.34482759  0.50000000  0.00000000       0.004
   0.36206897  0.50000000  0.00000000       0.004
   0.37931034  0.50000000  0.00000000       0.004
   0.39655172  0.50000000  0.00000000       0.004
   0.41379310  0.50000000  0.00000000       0.004
   0.43103448  0.50000000  0.00000000       0.004
   0.44827586  0.50000000  0.00000000       0.004
   0.46551724  0.50000000  0.00000000       0.004
   0.48275862  0.50000000  0.00000000       0.004
   0.50000000  0.50000000  0.00000000       0.004
   0.50000000  0.50000000  0.00000000       0.004
   0.48275862  0.48275862  0.01724138       0.004
   0.46551724  0.46551724  0.03448276       0.004
   0.44827586  0.44827586  0.05172414       0.004
   0.43103448  0.43103448  0.06896552       0.004
   0.41379310  0.41379310  0.08620690       0.004
   0.39655172  0.39655172  0.10344828       0.004
   0.37931034  0.37931034  0.12068966       0.004
   0.36206897  0.36206897  0.13793103       0.004
   0.34482759  0.34482759  0.15517241       0.004
   0.32758621  0.32758621  0.17241379       0.004
   0.31034483  0.31034483  0.18965517       0.004
   0.29310345  0.29310345  0.20689655       0.004
   0.27586207  0.27586207  0.22413793       0.004
   0.25862069  0.25862069  0.24137931       0.004
   0.24137931  0.24137931  0.25862069       0.004
   0.22413793  0.22413793  0.27586207       0.004
   0.20689655  0.20689655  0.29310345       0.004
   0.18965517  0.18965517  0.31034483       0.004
   0.17241379  0.17241379  0.32758621       0.004
   0.15517241  0.15517241  0.34482759       0.004
   0.13793103  0.13793103  0.36206897       0.004
   0.12068966  0.12068966  0.37931034       0.004
   0.10344828  0.10344828  0.39655172       0.004
   0.08620690  0.08620690  0.41379310       0.004
   0.06896552  0.06896552  0.43103448       0.004
   0.05172414  0.05172414  0.44827586       0.004
   0.03448276  0.03448276  0.46551724       0.004
   0.01724138  0.01724138  0.48275862       0.004
   0.00000000  0.00000000  0.50000000       0.004
   0.00000000  0.00000000  0.50000000       0.004
   0.01724138  0.00000000  0.50000000       0.004
   0.03448276  0.00000000  0.50000000       0.004
   0.05172414  0.00000000  0.50000000       0.004
   0.06896552  0.00000000  0.50000000       0.004
   0.08620690  0.00000000  0.50000000       0.004
   0.10344828  0.00000000  0.50000000       0.004
   0.12068966  0.00000000  0.50000000       0.004
   0.13793103  0.00000000  0.50000000       0.004
   0.15517241  0.00000000  0.50000000       0.004
   0.17241379  0.00000000  0.50000000       0.004
   0.18965517  0.00000000  0.50000000       0.004
   0.20689655  0.00000000  0.50000000       0.004
   0.22413793  0.00000000  0.50000000       0.004
   0.24137931  0.00000000  0.50000000       0.004
   0.25862069  0.00000000  0.50000000       0.004
   0.27586207  0.00000000  0.50000000       0.004
   0.29310345  0.00000000  0.50000000       0.004
   0.31034483  0.00000000  0.50000000       0.004
   0.32758621  0.00000000  0.50000000       0.004
   0.34482759  0.00000000  0.50000000       0.004
   0.36206897  0.00000000  0.50000000       0.004
   0.37931034  0.00000000  0.50000000       0.004
   0.39655172  0.00000000  0.50000000       0.004
   0.41379310  0.00000000  0.50000000       0.004
   0.43103448  0.00000000  0.50000000       0.004
   0.44827586  0.00000000  0.50000000       0.004
   0.46551724  0.00000000  0.50000000       0.004
   0.48275862  0.00000000  0.50000000       0.004
   0.50000000  0.00000000  0.50000000       0.004
   0.50000000  0.00000000  0.50000000       0.004
   0.48275862  0.00000000  0.48275862       0.004
   0.46551724  0.00000000  0.46551724       0.004
   0.44827586  0.00000000  0.44827586       0.004
   0.43103448  0.00000000  0.43103448       0.004
   0.41379310  0.00000000  0.41379310       0.004
   0.39655172  0.00000000  0.39655172       0.004
   0.37931034  0.00000000  0.37931034       0.004
   0.36206897  0.00000000  0.36206897       0.004
   0.34482759  0.00000000  0.34482759       0.004
   0.32758621  0.00000000  0.32758621       0.004
   0.31034483  0.00000000  0.31034483       0.004
   0.29310345  0.00000000  0.29310345       0.004
   0.27586207  0.00000000  0.27586207       0.004
   0.25862069  0.00000000  0.25862069       0.004
   0.24137931  0.00000000  0.24137931       0.004
   0.22413793  0.00000000  0.22413793       0.004
   0.20689655  0.00000000  0.20689655       0.004
   0.18965517  0.00000000  0.18965517       0.004
   0.17241379  0.00000000  0.17241379       0.004
   0.15517241  0.00000000  0.15517241       0.004
   0.13793103  0.00000000  0.13793103       0.004
   0.12068966  0.00000000  0.12068966       0.004
   0.10344828  0.00000000  0.10344828       0.004
   0.08620690  0.00000000  0.08620690       0.004
   0.06896552  0.00000000  0.06896552       0.004
   0.05172414  0.00000000  0.05172414       0.004
   0.03448276  0.00000000  0.03448276       0.004
   0.01724138  0.00000000  0.01724138       0.004
   0.00000000  0.00000000  0.00000000       0.004
   0.00000000  0.00000000  0.00000000       0.004
   0.00000000  0.01724138  0.01724138       0.004
   0.00000000  0.03448276  0.03448276       0.004
   0.00000000  0.05172414  0.05172414       0.004
   0.00000000  0.06896552  0.06896552       0.004
   0.00000000  0.08620690  0.08620690       0.004
   0.00000000  0.10344828  0.10344828       0.004
   0.00000000  0.12068966  0.12068966       0.004
   0.00000000  0.13793103  0.13793103       0.004
   0.00000000  0.15517241  0.15517241       0.004
   0.00000000  0.17241379  0.17241379       0.004
   0.00000000  0.18965517  0.18965517       0.004
   0.00000000  0.20689655  0.20689655       0.004
   0.00000000  0.22413793  0.22413793       0.004
   0.00000000  0.24137931  0.24137931       0.004
   0.00000000  0.25862069  0.25862069       0.004
   0.00000000  0.27586207  0.27586207       0.004
   0.00000000  0.29310345  0.29310345       0.004
   0.00000000  0.31034483  0.31034483       0.004
   0.00000000  0.32758621  0.32758621       0.004
   0.00000000  0.34482759  0.34482759       0.004
   0.00000000  0.36206897  0.36206897       0.004
   0.00000000  0.37931034  0.37931034       0.004
   0.00000000  0.39655172  0.39655172       0.004
   0.00000000  0.41379310  0.41379310       0.004
   0.00000000  0.43103448  0.43103448       0.004
   0.00000000  0.44827586  0.44827586       0.004
   0.00000000  0.46551724  0.46551724       0.004
   0.00000000  0.48275862  0.48275862       0.004
   0.00000000  0.50000000  0.50000000       0.004
   0.00000000  0.50000000  0.50000000       0.004
   0.01724138  0.50000000  0.50000000       0.004
   0.03448276  0.50000000  0.50000000       0.004
   0.05172414  0.50000000  0.50000000       0.004
   0.06896552  0.50000000  0.50000000       0.004
   0.08620690  0.50000000  0.50000000       0.004
   0.10344828  0.50000000  0.50000000       0.004
   0.12068966  0.50000000  0.50000000       0.004
   0.13793103  0.50000000  0.50000000       0.004
   0.15517241  0.50000000  0.50000000       0.004
   0.17241379  0.50000000  0.50000000       0.004
   0.18965517  0.50000000  0.50000000       0.004
   0.20689655  0.50000000  0.50000000       0.004
   0.22413793  0.50000000  0.50000000       0.004
   0.24137931  0.50000000  0.50000000       0.004
   0.25862069  0.50000000  0.50000000       0.004
   0.27586207  0.50000000  0.50000000       0.004
   0.29310345  0.50000000  0.50000000       0.004
   0.31034483  0.50000000  0.50000000       0.004
   0.32758621  0.50000000  0.50000000       0.004
   0.34482759  0.50000000  0.50000000       0.004
   0.36206897  0.50000000  0.50000000       0.004
   0.37931034  0.50000000  0.50000000       0.004
   0.39655172  0.50000000  0.50000000       0.004
   0.41379310  0.50000000  0.50000000       0.004
   0.43103448  0.50000000  0.50000000       0.004
   0.44827586  0.50000000  0.50000000       0.004
   0.46551724  0.50000000  0.50000000       0.004
   0.48275862  0.50000000  0.50000000       0.004
   0.50000000  0.50000000  0.50000000       0.004
 
 position of ions in fractional coordinates (direct lattice) 
   0.24999824  0.65333907  0.24999924
   0.74999718  0.65334397  0.24999246
   0.25000028  0.34665887  0.74999812
   0.74999812  0.34667160  0.74999803
   0.11098737  0.10971827  0.92885353
   0.61099165  0.10974620  0.92883197
   0.38901139  0.89024745  0.07116972
   0.88901284  0.89024462  0.07113376
   0.38901343  0.10971869  0.57116129
   0.88899835  0.10975191  0.57115508
   0.11098573  0.89028836  0.42886177
   0.61099438  0.89025473  0.42884128
   0.13056201  0.37799605  0.40613174
   0.63056362  0.37797949  0.40612613
   0.36945449  0.62200935  0.59388321
   0.86944086  0.62202539  0.59386837
   0.36945619  0.37798299  0.09386776
   0.86943774  0.37798105  0.09387641
   0.13054080  0.62200694  0.90611567
   0.63055873  0.62202855  0.90611268
   0.99999187  0.17689543  0.25001297
   0.50000342  0.17688046  0.24999690
   0.99999854  0.82311191  0.75002387
   0.50000277  0.82311880  0.74998806
 
 position of ions in cartesian coordinates  (Angst):
   2.28785595  3.72751829  1.25079442
   6.87954981  3.72749409  1.27489308
   2.27201982  1.97777269  3.72831426
   6.86370326  1.97779321  3.75244602
   0.98974441  0.62594347  4.60784731
   5.58148775  0.62605066  4.63187297
   3.57013276  5.07916368  0.37138967
   8.16185050  5.07909542  0.39534387
   3.55432738  0.62592849  2.84889130
   8.14589242  0.62606591  2.87299210
   1.00555348  5.07941441  2.13034479
   5.59733692  5.07917046  2.15437599
   1.18608519  2.15658705  2.01868110
   5.77780340  2.15644045  2.04278571
   3.37395515  3.54874648  2.96051561
   7.96553379  3.54878583  2.98457371
   3.38986181  2.15649782  0.48293466
   7.98139538  2.15643459  0.50710895
   1.17000038  3.54874747  4.49610491
   5.76186845  3.54881863  4.52022330
   9.17538275  1.00914458  1.28707862
   4.58378604  1.00911128  1.26286728
   9.15952719  4.69604367  3.76462218
   4.56786393  4.69613508  3.74031263
 


--------------------------------------------------------------------------------------------------------


 k-point  1 :   0.5000 0.0000 0.0000  plane waves:    6578
 k-point  2 :   0.4828 0.0000 0.0000  plane waves:    6577
 k-point  3 :   0.4655 0.0000 0.0000  plane waves:    6581
 k-point  4 :   0.4483 0.0000 0.0000  plane waves:    6575
 k-point  5 :   0.4310 0.0000 0.0000  plane waves:    6568
 k-point  6 :   0.4138 0.0000 0.0000  plane waves:    6567
 k-point  7 :   0.3966 0.0000 0.0000  plane waves:    6562
 k-point  8 :   0.3793 0.0000 0.0000  plane waves:    6570
 k-point  9 :   0.3621 0.0000 0.0000  plane waves:    6572
 k-point 10 :   0.3448 0.0000 0.0000  plane waves:    6578
 k-point 11 :   0.3276 0.0000 0.0000  plane waves:    6578
 k-point 12 :   0.3103 0.0000 0.0000  plane waves:    6576
 k-point 13 :   0.2931 0.0000 0.0000  plane waves:    6574
 k-point 14 :   0.2759 0.0000 0.0000  plane waves:    6570
 k-point 15 :   0.2586 0.0000 0.0000  plane waves:    6566
 k-point 16 :   0.2414 0.0000 0.0000  plane waves:    6569
 k-point 17 :   0.2241 0.0000 0.0000  plane waves:    6571
 k-point 18 :   0.2069 0.0000 0.0000  plane waves:    6579
 k-point 19 :   0.1897 0.0000 0.0000  plane waves:    6583
 k-point 20 :   0.1724 0.0000 0.0000  plane waves:    6581
 k-point 21 :   0.1552 0.0000 0.0000  plane waves:    6583
 k-point 22 :   0.1379 0.0000 0.0000  plane waves:    6584
 k-point 23 :   0.1207 0.0000 0.0000  plane waves:    6583
 k-point 24 :   0.1034 0.0000 0.0000  plane waves:    6585
 k-point 25 :   0.0862 0.0000 0.0000  plane waves:    6589
 k-point 26 :   0.0690 0.0000 0.0000  plane waves:    6591
 k-point 27 :   0.0517 0.0000 0.0000  plane waves:    6592
 k-point 28 :   0.0345 0.0000 0.0000  plane waves:    6595
 k-point 29 :   0.0172 0.0000 0.0000  plane waves:    6598
 k-point 30 :   0.0000 0.0000 0.0000  plane waves:    6607
 k-point 31 :   0.0000 0.0000 0.0000  plane waves:    6607
 k-point 32 :   0.0000 0.0172 0.0000  plane waves:    6606
 k-point 33 :   0.0000 0.0345 0.0000  plane waves:    6607
 k-point 34 :   0.0000 0.0517 0.0000  plane waves:    6599
 k-point 35 :   0.0000 0.0690 0.0000  plane waves:    6583
 k-point 36 :   0.0000 0.0862 0.0000  plane waves:    6577
 k-point 37 :   0.0000 0.1034 0.0000  plane waves:    6565
 k-point 38 :   0.0000 0.1207 0.0000  plane waves:    6569
 k-point 39 :   0.0000 0.1379 0.0000  plane waves:    6556
 k-point 40 :   0.0000 0.1552 0.0000  plane waves:    6547
 k-point 41 :   0.0000 0.1724 0.0000  plane waves:    6551
 k-point 42 :   0.0000 0.1897 0.0000  plane waves:    6555
 k-point 43 :   0.0000 0.2069 0.0000  plane waves:    6565
 k-point 44 :   0.0000 0.2241 0.0000  plane waves:    6575
 k-point 45 :   0.0000 0.2414 0.0000  plane waves:    6570
 k-point 46 :   0.0000 0.2586 0.0000  plane waves:    6567
 k-point 47 :   0.0000 0.2759 0.0000  plane waves:    6565
 k-point 48 :   0.0000 0.2931 0.0000  plane waves:    6569
 k-point 49 :   0.0000 0.3103 0.0000  plane waves:    6561
 k-point 50 :   0.0000 0.3276 0.0000  plane waves:    6561
 k-point 51 :   0.0000 0.3448 0.0000  plane waves:    6565
 k-point 52 :   0.0000 0.3621 0.0000  plane waves:    6571
 k-point 53 :   0.0000 0.3793 0.0000  plane waves:    6571
 k-point 54 :   0.0000 0.3966 0.0000  plane waves:    6567
 k-point 55 :   0.0000 0.4138 0.0000  plane waves:    6567
 k-point 56 :   0.0000 0.4310 0.0000  plane waves:    6572
 k-point 57 :   0.0000 0.4483 0.0000  plane waves:    6572
 k-point 58 :   0.0000 0.4655 0.0000  plane waves:    6554
 k-point 59 :   0.0000 0.4828 0.0000  plane waves:    6546
 k-point 60 :   0.0000 0.5000 0.0000  plane waves:    6536
 k-point 61 :   0.0000 0.5000 0.0000  plane waves:    6536
 k-point 62 :   0.0172 0.5000 0.0000  plane waves:    6544
 k-point 63 :   0.0345 0.5000 0.0000  plane waves:    6548
 k-point 64 :   0.0517 0.5000 0.0000  plane waves:    6548
 k-point 65 :   0.0690 0.5000 0.0000  plane waves:    6560
 k-point 66 :   0.0862 0.5000 0.0000  plane waves:    6562
 k-point 67 :   0.1034 0.5000 0.0000  plane waves:    6564
 k-point 68 :   0.1207 0.5000 0.0000  plane waves:    6568
 k-point 69 :   0.1379 0.5000 0.0000  plane waves:    6570
 k-point 70 :   0.1552 0.5000 0.0000  plane waves:    6564
 k-point 71 :   0.1724 0.5000 0.0000  plane waves:    6567
 k-point 72 :   0.1897 0.5000 0.0000  plane waves:    6573
 k-point 73 :   0.2069 0.5000 0.0000  plane waves:    6570
 k-point 74 :   0.2241 0.5000 0.0000  plane waves:    6570
 k-point 75 :   0.2414 0.5000 0.0000  plane waves:    6581
 k-point 76 :   0.2586 0.5000 0.0000  plane waves:    6588
 k-point 77 :   0.2759 0.5000 0.0000  plane waves:    6593
 k-point 78 :   0.2931 0.5000 0.0000  plane waves:    6598
 k-point 79 :   0.3103 0.5000 0.0000  plane waves:    6595
 k-point 80 :   0.3276 0.5000 0.0000  plane waves:    6590
 k-point 81 :   0.3448 0.5000 0.0000  plane waves:    6590
 k-point 82 :   0.3621 0.5000 0.0000  plane waves:    6593
 k-point 83 :   0.3793 0.5000 0.0000  plane waves:    6595
 k-point 84 :   0.3966 0.5000 0.0000  plane waves:    6598
 k-point 85 :   0.4138 0.5000 0.0000  plane waves:    6602
 k-point 86 :   0.4310 0.5000 0.0000  plane waves:    6604
 k-point 87 :   0.4483 0.5000 0.0000  plane waves:    6610
 k-point 88 :   0.4655 0.5000 0.0000  plane waves:    6606
 k-point 89 :   0.4828 0.5000 0.0000  plane waves:    6598
 k-point 90 :   0.5000 0.5000 0.0000  plane waves:    6600
 k-point 91 :   0.5000 0.5000 0.0000  plane waves:    6600
 k-point 92 :   0.4828 0.4828 0.0172  plane waves:    6602
 k-point 93 :   0.4655 0.4655 0.0345  plane waves:    6594
 k-point 94 :   0.4483 0.4483 0.0517  plane waves:    6593
 k-point 95 :   0.4310 0.4310 0.0690  plane waves:    6587
 k-point 96 :   0.4138 0.4138 0.0862  plane waves:    6591
 k-point 97 :   0.3966 0.3966 0.1034  plane waves:    6578
 k-point 98 :   0.3793 0.3793 0.1207  plane waves:    6577
 k-point 99 :   0.3621 0.3621 0.1379  plane waves:    6580
 k-point ** :   0.3448 0.3448 0.1552  plane waves:    6589
 k-point ** :   0.3276 0.3276 0.1724  plane waves:    6581
 k-point ** :   0.3103 0.3103 0.1897  plane waves:    6585
 k-point ** :   0.2931 0.2931 0.2069  plane waves:    6585
 k-point ** :   0.2759 0.2759 0.2241  plane waves:    6595
 k-point ** :   0.2586 0.2586 0.2414  plane waves:    6593
 k-point ** :   0.2414 0.2414 0.2586  plane waves:    6597
 k-point ** :   0.2241 0.2241 0.2759  plane waves:    6599
 k-point ** :   0.2069 0.2069 0.2931  plane waves:    6600
 k-point ** :   0.1897 0.1897 0.3103  plane waves:    6602
 k-point ** :   0.1724 0.1724 0.3276  plane waves:    6600
 k-point ** :   0.1552 0.1552 0.3448  plane waves:    6604
 k-point ** :   0.1379 0.1379 0.3621  plane waves:    6610
 k-point ** :   0.1207 0.1207 0.3793  plane waves:    6606
 k-point ** :   0.1034 0.1034 0.3966  plane waves:    6606
 k-point ** :   0.0862 0.0862 0.4138  plane waves:    6613
 k-point ** :   0.0690 0.0690 0.4310  plane waves:    6617
 k-point ** :   0.0517 0.0517 0.4483  plane waves:    6623
 k-point ** :   0.0345 0.0345 0.4655  plane waves:    6614
 k-point ** :   0.0172 0.0172 0.4828  plane waves:    6618
 k-point ** :   0.0000 0.0000 0.5000  plane waves:    6622
 k-point ** :   0.0000 0.0000 0.5000  plane waves:    6622
 k-point ** :   0.0172 0.0000 0.5000  plane waves:    6612
 k-point ** :   0.0345 0.0000 0.5000  plane waves:    6609
 k-point ** :   0.0517 0.0000 0.5000  plane waves:    6606
 k-point ** :   0.0690 0.0000 0.5000  plane waves:    6606
 k-point ** :   0.0862 0.0000 0.5000  plane waves:    6607
 k-point ** :   0.1034 0.0000 0.5000  plane waves:    6604
 k-point ** :   0.1207 0.0000 0.5000  plane waves:    6602
 k-point ** :   0.1379 0.0000 0.5000  plane waves:    6607
 k-point ** :   0.1552 0.0000 0.5000  plane waves:    6606
 k-point ** :   0.1724 0.0000 0.5000  plane waves:    6600
 k-point ** :   0.1897 0.0000 0.5000  plane waves:    6592
 k-point ** :   0.2069 0.0000 0.5000  plane waves:    6584
 k-point ** :   0.2241 0.0000 0.5000  plane waves:    6586
 k-point ** :   0.2414 0.0000 0.5000  plane waves:    6592
 k-point ** :   0.2586 0.0000 0.5000  plane waves:    6598
 k-point ** :   0.2759 0.0000 0.5000  plane waves:    6597
 k-point ** :   0.2931 0.0000 0.5000  plane waves:    6603
 k-point ** :   0.3103 0.0000 0.5000  plane waves:    6609
 k-point ** :   0.3276 0.0000 0.5000  plane waves:    6614
 k-point ** :   0.3448 0.0000 0.5000  plane waves:    6610
 k-point ** :   0.3621 0.0000 0.5000  plane waves:    6621
 k-point ** :   0.3793 0.0000 0.5000  plane waves:    6621
 k-point ** :   0.3966 0.0000 0.5000  plane waves:    6616
 k-point ** :   0.4138 0.0000 0.5000  plane waves:    6611
 k-point ** :   0.4310 0.0000 0.5000  plane waves:    6599
 k-point ** :   0.4483 0.0000 0.5000  plane waves:    6600
 k-point ** :   0.4655 0.0000 0.5000  plane waves:    6598
 k-point ** :   0.4828 0.0000 0.5000  plane waves:    6603
 k-point ** :   0.5000 0.0000 0.5000  plane waves:    6608
 k-point ** :   0.5000 0.0000 0.5000  plane waves:    6608
 k-point ** :   0.4828 0.0000 0.4828  plane waves:    6610
 k-point ** :   0.4655 0.0000 0.4655  plane waves:    6597
 k-point ** :   0.4483 0.0000 0.4483  plane waves:    6592
 k-point ** :   0.4310 0.0000 0.4310  plane waves:    6600
 k-point ** :   0.4138 0.0000 0.4138  plane waves:    6598
 k-point ** :   0.3966 0.0000 0.3966  plane waves:    6602
 k-point ** :   0.3793 0.0000 0.3793  plane waves:    6604
 k-point ** :   0.3621 0.0000 0.3621  plane waves:    6611
 k-point ** :   0.3448 0.0000 0.3448  plane waves:    6596
 k-point ** :   0.3276 0.0000 0.3276  plane waves:    6599
 k-point ** :   0.3103 0.0000 0.3103  plane waves:    6603
 k-point ** :   0.2931 0.0000 0.2931  plane waves:    6604
 k-point ** :   0.2759 0.0000 0.2759  plane waves:    6600
 k-point ** :   0.2586 0.0000 0.2586  plane waves:    6600
 k-point ** :   0.2414 0.0000 0.2414  plane waves:    6602
 k-point ** :   0.2241 0.0000 0.2241  plane waves:    6599
 k-point ** :   0.2069 0.0000 0.2069  plane waves:    6594
 k-point ** :   0.1897 0.0000 0.1897  plane waves:    6597
 k-point ** :   0.1724 0.0000 0.1724  plane waves:    6606
 k-point ** :   0.1552 0.0000 0.1552  plane waves:    6592
 k-point ** :   0.1379 0.0000 0.1379  plane waves:    6596
 k-point ** :   0.1207 0.0000 0.1207  plane waves:    6597
 k-point ** :   0.1034 0.0000 0.1034  plane waves:    6600
 k-point ** :   0.0862 0.0000 0.0862  plane waves:    6594
 k-point ** :   0.0690 0.0000 0.0690  plane waves:    6589
 k-point ** :   0.0517 0.0000 0.0517  plane waves:    6592
 k-point ** :   0.0345 0.0000 0.0345  plane waves:    6590
 k-point ** :   0.0172 0.0000 0.0172  plane waves:    6604
 k-point ** :   0.0000 0.0000 0.0000  plane waves:    6607
 k-point ** :   0.0000 0.0000 0.0000  plane waves:    6607
 k-point ** :   0.0000 0.0172 0.0172  plane waves:    6602
 k-point ** :   0.0000 0.0345 0.0345  plane waves:    6595
 k-point ** :   0.0000 0.0517 0.0517  plane waves:    6580
 k-point ** :   0.0000 0.0690 0.0690  plane waves:    6579
 k-point ** :   0.0000 0.0862 0.0862  plane waves:    6588
 k-point ** :   0.0000 0.1034 0.1034  plane waves:    6582
 k-point ** :   0.0000 0.1207 0.1207  plane waves:    6592
 k-point ** :   0.0000 0.1379 0.1379  plane waves:    6591
 k-point ** :   0.0000 0.1552 0.1552  plane waves:    6582
 k-point ** :   0.0000 0.1724 0.1724  plane waves:    6587
 k-point ** :   0.0000 0.1897 0.1897  plane waves:    6592
 k-point ** :   0.0000 0.2069 0.2069  plane waves:    6591
 k-point ** :   0.0000 0.2241 0.2241  plane waves:    6585
 k-point ** :   0.0000 0.2414 0.2414  plane waves:    6584
 k-point ** :   0.0000 0.2586 0.2586  plane waves:    6595
 k-point ** :   0.0000 0.2759 0.2759  plane waves:    6602
 k-point ** :   0.0000 0.2931 0.2931  plane waves:    6601
 k-point ** :   0.0000 0.3103 0.3103  plane waves:    6599
 k-point ** :   0.0000 0.3276 0.3276  plane waves:    6597
 k-point ** :   0.0000 0.3448 0.3448  plane waves:    6596
 k-point ** :   0.0000 0.3621 0.3621  plane waves:    6589
 k-point ** :   0.0000 0.3793 0.3793  plane waves:    6590
 k-point ** :   0.0000 0.3966 0.3966  plane waves:    6599
 k-point ** :   0.0000 0.4138 0.4138  plane waves:    6609
 k-point ** :   0.0000 0.4310 0.4310  plane waves:    6609
 k-point ** :   0.0000 0.4483 0.4483  plane waves:    6610
 k-point ** :   0.0000 0.4655 0.4655  plane waves:    6614
 k-point ** :   0.0000 0.4828 0.4828  plane waves:    6627
 k-point ** :   0.0000 0.5000 0.5000  plane waves:    6634
 k-point ** :   0.0000 0.5000 0.5000  plane waves:    6634
 k-point ** :   0.0172 0.5000 0.5000  plane waves:    6624
 k-point ** :   0.0345 0.5000 0.5000  plane waves:    6624
 k-point ** :   0.0517 0.5000 0.5000  plane waves:    6618
 k-point ** :   0.0690 0.5000 0.5000  plane waves:    6612
 k-point ** :   0.0862 0.5000 0.5000  plane waves:    6604
 k-point ** :   0.1034 0.5000 0.5000  plane waves:    6609
 k-point ** :   0.1207 0.5000 0.5000  plane waves:    6608
 k-point ** :   0.1379 0.5000 0.5000  plane waves:    6610
 k-point ** :   0.1552 0.5000 0.5000  plane waves:    6604
 k-point ** :   0.1724 0.5000 0.5000  plane waves:    6605
 k-point ** :   0.1897 0.5000 0.5000  plane waves:    6598
 k-point ** :   0.2069 0.5000 0.5000  plane waves:    6596
 k-point ** :   0.2241 0.5000 0.5000  plane waves:    6596
 k-point ** :   0.2414 0.5000 0.5000  plane waves:    6585
 k-point ** :   0.2586 0.5000 0.5000  plane waves:    6583
 k-point ** :   0.2759 0.5000 0.5000  plane waves:    6580
 k-point ** :   0.2931 0.5000 0.5000  plane waves:    6578
 k-point ** :   0.3103 0.5000 0.5000  plane waves:    6580
 k-point ** :   0.3276 0.5000 0.5000  plane waves:    6578
 k-point ** :   0.3448 0.5000 0.5000  plane waves:    6574
 k-point ** :   0.3621 0.5000 0.5000  plane waves:    6579
 k-point ** :   0.3793 0.5000 0.5000  plane waves:    6580
 k-point ** :   0.3966 0.5000 0.5000  plane waves:    6584
 k-point ** :   0.4138 0.5000 0.5000  plane waves:    6586
 k-point ** :   0.4310 0.5000 0.5000  plane waves:    6586
 k-point ** :   0.4483 0.5000 0.5000  plane waves:    6590
 k-point ** :   0.4655 0.5000 0.5000  plane waves:    6590
 k-point ** :   0.4828 0.5000 0.5000  plane waves:    6595
 k-point ** :   0.5000 0.5000 0.5000  plane waves:    6592

 maximum and minimum number of plane-waves per node :      1683     1606

 maximum number of plane-waves:      6634
 maximum index in each direction: 
   IXMAX=   16   IYMAX=   10   IZMAX=    9
   IXMIN=  -17   IYMIN=  -10   IZMIN=   -9


 real space projection operators:
  total allocation   :       3187.62 KBytes
  max/ min on nodes  :        830.00        763.75


 parallel 3D FFT for wavefunctions:
    minimum data exchange during FFTs selected (reduces bandwidth)
 parallel 3D FFT for charge:
    minimum data exchange during FFTs selected (reduces bandwidth)


 total amount of memory used by VASP MPI-rank0   238175. kBytes
=======================================================================

   base      :      30000. kBytes
   nonlr-proj:       2158. kBytes
   fftplans  :        836. kBytes
   grid      :       2243. kBytes
   one-center:        186. kBytes
   wavefun   :     202752. kBytes
 
     INWAV:  cpu time    0.0000: real time    0.0002
 Broyden mixing: mesh for mixing (old mesh)
   NGX = 33   NGY = 21   NGZ = 19
  (NGX  =100   NGY  = 64   NGZ  = 56)
  gives a total of  13167 points

 initial charge density was supplied:
 charge density of overlapping atoms calculated
 number of electron     184.0000000 magnetization       8.0000000
 keeping initial charge density in first step


--------------------------------------------------------------------------------------------------------


 Maximum index for non-local projection operator          791
 Maximum index for augmentation-charges         1057 (set IRDMAX)


--------------------------------------------------------------------------------------------------------


 First call to EWALD:  gamma=   0.278
 Maximum number of real-space cells 2x 3x 3
 Maximum number of reciprocal cells 4x 3x 2

    FEWALD:  cpu time    0.0018: real time    0.0023


--------------------------------------- Iteration      1(   1)  ---------------------------------------


    POTLOK:  cpu time    0.0192: real time    0.0201
    SETDIJ:  cpu time    0.0057: real time    0.0057
atom =   1  type =  1  l = 2
 
 onsite density matrix
 
spin component  1
 
  0.9237  0.0000  0.0000  0.0000  0.0000
  0.0000  0.9237  0.0000  0.0000  0.0000
  0.0000  0.0000  0.9237  0.0000  0.0000
  0.0000  0.0000  0.0000  0.9237  0.0000
  0.0000  0.0000  0.0000  0.0000  0.9237
 
spin component  2
 
  0.7184  0.0000  0.0000  0.0000  0.0000
  0.0000  0.7184  0.0000  0.0000  0.0000
  0.0000  0.0000  0.7184  0.0000  0.0000
  0.0000  0.0000  0.0000  0.7184  0.0000
  0.0000  0.0000  0.0000  0.0000  0.7184
 
 occupancies and eigenvectors
 
  o =  0.7184  v =  0.0000  0.0000  0.0000  0.0000  0.0000  1.0000  0.0000  0.0000  0.0000  0.0000      0.0000  0.0000  0.0000  0.0000  0.0000  0.0000  0.0000  0.0000  0.0000  0.0000
  o =  0.7184  v =  0.0000  0.0000  0.0000  0.0000  0.0000  0.0000  1.0000  0.0000  0.0000  0.0000      0.0000  0.0000  0.0000  0.0000  0.0000  0.0000  0.0000  0.0000  0.0000  0.0000
  o =  0.7184  v =  0.0000  0.0000  0.0000  0.0000  0.0000  0.0000  0.0000  1.0000  0.0000  0.0000      0.0000  0.0000  0.0000  0.0000  0.0000  0.0000  0.0000  0.0000  0.0000  0.0000
  o =  0.7184  v =  0.0000  0.0000  0.0000  0.0000  0.0000  0.0000  0.0000  0.0000  1.0000  0.0000      0.0000  0.0000  0.0000  0.0000  0.0000  0.0000  0.0000  0.0000  0.0000  0.0000
  o =  0.7184  v =  0.0000  0.0000  0.0000  0.0000  0.0000  0.0000  0.0000  0.0000  0.0000  1.0000      0.0000  0.0000  0.0000  0.0000  0.0000  0.0000  0.0000  0.0000  0.0000  0.0000
  o =  0.9237  v =  1.0000  0.0000  0.0000  0.0000  0.0000  0.0000  0.0000  0.0000  0.0000  0.0000      0.0000  0.0000  0.0000  0.0000  0.0000  0.0000  0.0000  0.0000  0.0000  0.0000
  o =  0.9237  v =  0.0000  1.0000  0.0000  0.0000  0.0000  0.0000  0.0000  0.0000  0.0000  0.0000      0.0000  0.0000  0.0000  0.0000  0.0000  0.0000  0.0000  0.0000  0.0000  0.0000
  o =  0.9237  v =  0.0000  0.0000  1.0000  0.0000  0.0000  0.0000  0.0000  0.0000  0.0000  0.0000      0.0000  0.0000  0.0000  0.0000  0.0000  0.0000  0.0000  0.0000  0.0000  0.0000
  o =  0.9237  v =  0.0000  0.0000  0.0000  1.0000  0.0000  0.0000  0.0000  0.0000  0.0000  0.0000      0.0000  0.0000  0.0000  0.0000  0.0000  0.0000  0.0000  0.0000  0.0000  0.0000
  o =  0.9237  v =  0.0000  0.0000  0.0000  0.0000  1.0000  0.0000  0.0000  0.0000  0.0000  0.0000      0.0000  0.0000  0.0000  0.0000  0.0000  0.0000  0.0000  0.0000  0.0000  0.0000
atom =   2  type =  1  l = 2
 
 onsite density matrix
 
spin component  1
 
  0.9237  0.0000  0.0000  0.0000  0.0000
  0.0000  0.9237  0.0000  0.0000  0.0000
  0.0000  0.0000  0.9237  0.0000  0.0000
  0.0000  0.0000  0.0000  0.9237  0.0000
  0.0000  0.0000  0.0000  0.0000  0.9237
 
spin component  2
 
  0.7184  0.0000  0.0000  0.0000  0.0000
  0.0000  0.7184  0.0000  0.0000  0.0000
  0.0000  0.0000  0.7184  0.0000  0.0000
  0.0000  0.0000  0.0000  0.7184  0.0000
  0.0000  0.0000  0.0000  0.0000  0.7184
 
 occupancies and eigenvectors
 
  o =  0.7184  v =  0.0000  0.0000  0.0000  0.0000  0.0000  1.0000  0.0000  0.0000  0.0000  0.0000      0.0000  0.0000  0.0000  0.0000  0.0000  0.0000  0.0000  0.0000  0.0000  0.0000
  o =  0.7184  v =  0.0000  0.0000  0.0000  0.0000  0.0000  0.0000  1.0000  0.0000  0.0000  0.0000      0.0000  0.0000  0.0000  0.0000  0.0000  0.0000  0.0000  0.0000  0.0000  0.0000
  o =  0.7184  v =  0.0000  0.0000  0.0000  0.0000  0.0000  0.0000  0.0000  1.0000  0.0000  0.0000      0.0000  0.0000  0.0000  0.0000  0.0000  0.0000  0.0000  0.0000  0.0000  0.0000
  o =  0.7184  v =  0.0000  0.0000  0.0000  0.0000  0.0000  0.0000  0.0000  0.0000  1.0000  0.0000      0.0000  0.0000  0.0000  0.0000  0.0000  0.0000  0.0000  0.0000  0.0000  0.0000
  o =  0.7184  v =  0.0000  0.0000  0.0000  0.0000  0.0000  0.0000  0.0000  0.0000  0.0000  1.0000      0.0000  0.0000  0.0000  0.0000  0.0000  0.0000  0.0000  0.0000  0.0000  0.0000
  o =  0.9237  v =  1.0000  0.0000  0.0000  0.0000  0.0000  0.0000  0.0000  0.0000  0.0000  0.0000      0.0000  0.0000  0.0000  0.0000  0.0000  0.0000  0.0000  0.0000  0.0000  0.0000
  o =  0.9237  v =  0.0000  1.0000  0.0000  0.0000  0.0000  0.0000  0.0000  0.0000  0.0000  0.0000      0.0000  0.0000  0.0000  0.0000  0.0000  0.0000  0.0000  0.0000  0.0000  0.0000
  o =  0.9237  v =  0.0000  0.0000  1.0000  0.0000  0.0000  0.0000  0.0000  0.0000  0.0000  0.0000      0.0000  0.0000  0.0000  0.0000  0.0000  0.0000  0.0000  0.0000  0.0000  0.0000
  o =  0.9237  v =  0.0000  0.0000  0.0000  1.0000  0.0000  0.0000  0.0000  0.0000  0.0000  0.0000      0.0000  0.0000  0.0000  0.0000  0.0000  0.0000  0.0000  0.0000  0.0000  0.0000
  o =  0.9237  v =  0.0000  0.0000  0.0000  0.0000  1.0000  0.0000  0.0000  0.0000  0.0000  0.0000      0.0000  0.0000  0.0000  0.0000  0.0000  0.0000  0.0000  0.0000  0.0000  0.0000
atom =   3  type =  1  l = 2
 
 onsite density matrix
 
spin component  1
 
  0.9237  0.0000  0.0000  0.0000  0.0000
  0.0000  0.9237  0.0000  0.0000  0.0000
  0.0000  0.0000  0.9237  0.0000  0.0000
  0.0000  0.0000  0.0000  0.9237  0.0000
  0.0000  0.0000  0.0000  0.0000  0.9237
 
spin component  2
 
  0.7184  0.0000  0.0000  0.0000  0.0000
  0.0000  0.7184  0.0000  0.0000  0.0000
  0.0000  0.0000  0.7184  0.0000  0.0000
  0.0000  0.0000  0.0000  0.7184  0.0000
  0.0000  0.0000  0.0000  0.0000  0.7184
 
 occupancies and eigenvectors
 
  o =  0.7184  v =  0.0000  0.0000  0.0000  0.0000  0.0000  1.0000  0.0000  0.0000  0.0000  0.0000      0.0000  0.0000  0.0000  0.0000  0.0000  0.0000  0.0000  0.0000  0.0000  0.0000
  o =  0.7184  v =  0.0000  0.0000  0.0000  0.0000  0.0000  0.0000  1.0000  0.0000  0.0000  0.0000      0.0000  0.0000  0.0000  0.0000  0.0000  0.0000  0.0000  0.0000  0.0000  0.0000
  o =  0.7184  v =  0.0000  0.0000  0.0000  0.0000  0.0000  0.0000  0.0000  1.0000  0.0000  0.0000      0.0000  0.0000  0.0000  0.0000  0.0000  0.0000  0.0000  0.0000  0.0000  0.0000
  o =  0.7184  v =  0.0000  0.0000  0.0000  0.0000  0.0000  0.0000  0.0000  0.0000  1.0000  0.0000      0.0000  0.0000  0.0000  0.0000  0.0000  0.0000  0.0000  0.0000  0.0000  0.0000
  o =  0.7184  v =  0.0000  0.0000  0.0000  0.0000  0.0000  0.0000  0.0000  0.0000  0.0000  1.0000      0.0000  0.0000  0.0000  0.0000  0.0000  0.0000  0.0000  0.0000  0.0000  0.0000
  o =  0.9237  v =  1.0000  0.0000  0.0000  0.0000  0.0000  0.0000  0.0000  0.0000  0.0000  0.0000      0.0000  0.0000  0.0000  0.0000  0.0000  0.0000  0.0000  0.0000  0.0000  0.0000
  o =  0.9237  v =  0.0000  1.0000  0.0000  0.0000  0.0000  0.0000  0.0000  0.0000  0.0000  0.0000      0.0000  0.0000  0.0000  0.0000  0.0000  0.0000  0.0000  0.0000  0.0000  0.0000
  o =  0.9237  v =  0.0000  0.0000  1.0000  0.0000  0.0000  0.0000  0.0000  0.0000  0.0000  0.0000      0.0000  0.0000  0.0000  0.0000  0.0000  0.0000  0.0000  0.0000  0.0000  0.0000
  o =  0.9237  v =  0.0000  0.0000  0.0000  1.0000  0.0000  0.0000  0.0000  0.0000  0.0000  0.0000      0.0000  0.0000  0.0000  0.0000  0.0000  0.0000  0.0000  0.0000  0.0000  0.0000
  o =  0.9237  v =  0.0000  0.0000  0.0000  0.0000  1.0000  0.0000  0.0000  0.0000  0.0000  0.0000      0.0000  0.0000  0.0000  0.0000  0.0000  0.0000  0.0000  0.0000  0.0000  0.0000
atom =   4  type =  1  l = 2
 
 onsite density matrix
 
spin component  1
 
  0.9237  0.0000  0.0000  0.0000  0.0000
  0.0000  0.9237  0.0000  0.0000  0.0000
  0.0000  0.0000  0.9237  0.0000  0.0000
  0.0000  0.0000  0.0000  0.9237  0.0000
  0.0000  0.0000  0.0000  0.0000  0.9237
 
spin component  2
 
  0.7184  0.0000  0.0000  0.0000  0.0000
  0.0000  0.7184  0.0000  0.0000  0.0000
  0.0000  0.0000  0.7184  0.0000  0.0000
  0.0000  0.0000  0.0000  0.7184  0.0000
  0.0000  0.0000  0.0000  0.0000  0.7184
 
 occupancies and eigenvectors
 
  o =  0.7184  v =  0.0000  0.0000  0.0000  0.0000  0.0000  1.0000  0.0000  0.0000  0.0000  0.0000      0.0000  0.0000  0.0000  0.0000  0.0000  0.0000  0.0000  0.0000  0.0000  0.0000
  o =  0.7184  v =  0.0000  0.0000  0.0000  0.0000  0.0000  0.0000  1.0000  0.0000  0.0000  0.0000      0.0000  0.0000  0.0000  0.0000  0.0000  0.0000  0.0000  0.0000  0.0000  0.0000
  o =  0.7184  v =  0.0000  0.0000  0.0000  0.0000  0.0000  0.0000  0.0000  1.0000  0.0000  0.0000      0.0000  0.0000  0.0000  0.0000  0.0000  0.0000  0.0000  0.0000  0.0000  0.0000
  o =  0.7184  v =  0.0000  0.0000  0.0000  0.0000  0.0000  0.0000  0.0000  0.0000  1.0000  0.0000      0.0000  0.0000  0.0000  0.0000  0.0000  0.0000  0.0000  0.0000  0.0000  0.0000
  o =  0.7184  v =  0.0000  0.0000  0.0000  0.0000  0.0000  0.0000  0.0000  0.0000  0.0000  1.0000      0.0000  0.0000  0.0000  0.0000  0.0000  0.0000  0.0000  0.0000  0.0000  0.0000
  o =  0.9237  v =  1.0000  0.0000  0.0000  0.0000  0.0000  0.0000  0.0000  0.0000  0.0000  0.0000      0.0000  0.0000  0.0000  0.0000  0.0000  0.0000  0.0000  0.0000  0.0000  0.0000
  o =  0.9237  v =  0.0000  1.0000  0.0000  0.0000  0.0000  0.0000  0.0000  0.0000  0.0000  0.0000      0.0000  0.0000  0.0000  0.0000  0.0000  0.0000  0.0000  0.0000  0.0000  0.0000
  o =  0.9237  v =  0.0000  0.0000  1.0000  0.0000  0.0000  0.0000  0.0000  0.0000  0.0000  0.0000      0.0000  0.0000  0.0000  0.0000  0.0000  0.0000  0.0000  0.0000  0.0000  0.0000
  o =  0.9237  v =  0.0000  0.0000  0.0000  1.0000  0.0000  0.0000  0.0000  0.0000  0.0000  0.0000      0.0000  0.0000  0.0000  0.0000  0.0000  0.0000  0.0000  0.0000  0.0000  0.0000
  o =  0.9237  v =  0.0000  0.0000  0.0000  0.0000  1.0000  0.0000  0.0000  0.0000  0.0000  0.0000      0.0000  0.0000  0.0000  0.0000  0.0000  0.0000  0.0000  0.0000  0.0000  0.0000
     EDDAV:  cpu time   33.3029: real time   33.3124
       DOS:  cpu time    0.0292: real time    0.0292
    --------------------------------------------
      LOOP:  cpu time   33.3570: real time   33.3675

 eigenvalue-minimisations  :130504
 total energy-change (2. order) : 0.2044642E+04  (-0.1038564E+05)
 number of electron     184.0000000 magnetization       8.0000000
 augmentation part      184.0000000 magnetization       8.0000000

 Free energy of the ion-electron system (eV)
  ---------------------------------------------------
  alpha Z        PSCENC =       905.49996967
  Ewald energy   TEWEN  =    -13695.42136954
  -Hartree energ DENC   =     -7540.55496936
  -exchange      EXHF   =         0.00000000
  -V(xc)+E(xc)   XCENC  =       604.69773372
  PAW double counting   =     18166.29703885   -18434.78067948
  entropy T*S    EENTRO =        -0.02607636
  eigenvalues    EBANDS =       298.57693303
  atomic energy  EATOM  =     21740.35362048
  Solvation  Ediel_sol  =         0.00000000
  ---------------------------------------------------
  free energy    TOTEN  =      2044.64220100 eV

[...]
  0.013   0.000  -0.000  -0.004  -0.000   0.000  -0.000  -0.001
  0.002  -0.000   0.000  -0.002  -0.000  -0.000   0.000  -0.000
  0.003  -0.000   0.000  -0.005  -0.000  -0.000   0.000  -0.000
 total augmentation occupancy for first ion, spin component:           1
  1.995  -0.000  -0.000  -0.022   0.000  -0.000   0.000   0.000  -0.003  -0.001  -0.007  -0.000  -0.000   0.003   0.001   0.007
 -0.000   1.995   0.000   0.000  -0.022   0.000  -0.001   0.008   0.000   0.000   0.000   0.001  -0.008  -0.000  -0.000  -0.000
 -0.000   0.000   1.995  -0.000   0.000  -0.022   0.006  -0.001  -0.000   0.000   0.000  -0.006   0.001   0.000  -0.000  -0.000
 -0.022   0.000  -0.000   0.089   0.000   0.000  -0.000   0.000  -0.027   0.072  -0.092   0.000  -0.000   0.023  -0.064   0.083
  0.000  -0.022   0.000   0.000   0.096   0.002   0.061   0.049  -0.000  -0.000   0.000  -0.056  -0.043   0.000   0.000  -0.000
 -0.000   0.000  -0.022   0.000   0.002   0.091  -0.006   0.070  -0.000  -0.000  -0.000   0.008  -0.064   0.000   0.000   0.000
  0.000  -0.001   0.006  -0.000   0.061  -0.006   7.293  -1.601   0.002   0.003   0.005  -5.214   2.028  -0.002  -0.003  -0.004
  0.000   0.008  -0.001   0.000   0.049   0.070  -1.601   6.170  -0.000  -0.004   0.001   2.031  -3.716   0.000   0.004  -0.001
 -0.003   0.000  -0.000  -0.027  -0.000  -0.000   0.002  -0.000   6.143   1.730   0.524  -0.001   0.000  -3.697  -2.130  -0.662
 -0.001   0.000   0.000   0.072  -0.000  -0.000   0.003  -0.004   1.730   7.448   0.748  -0.003   0.004  -2.129  -5.312  -0.954
 -0.007   0.000   0.000  -0.092   0.000  -0.000   0.005   0.001   0.524   0.748   5.357  -0.004  -0.000  -0.660  -0.951  -2.659
 -0.000   0.001  -0.006   0.000  -0.056   0.008  -5.214   2.031  -0.001  -0.003  -0.004   4.605  -2.032   0.001   0.003   0.004
 -0.000  -0.008   0.001  -0.000  -0.043  -0.064   2.028  -3.716   0.000   0.004  -0.000  -2.032   3.094  -0.000  -0.004   0.000
  0.003  -0.000   0.000   0.023   0.000   0.000  -0.002   0.000  -3.697  -2.129  -0.660   0.001  -0.000   3.091   2.131   0.667
  0.001  -0.000  -0.000  -0.064   0.000   0.000  -0.003   0.004  -2.130  -5.312  -0.951   0.003  -0.004   2.131   4.703   0.965
  0.007  -0.000  -0.000   0.083  -0.000   0.000  -0.004  -0.001  -0.662  -0.954  -2.659   0.004   0.000   0.667   0.965   2.014
 -0.001   0.000  -0.000  -0.010   0.000  -0.000  -0.002   0.001  -0.122  -0.048  -0.006   0.001  -0.001   0.107   0.059   0.009
  0.000  -0.000   0.000   0.001   0.000  -0.000   0.000  -0.000   0.013  -0.003  -0.002  -0.000   0.000  -0.009  -0.001   0.002
 total augmentation occupancy for first ion, spin component:           2
 -0.001  -0.000  -0.000  -0.006  -0.000  -0.000   0.000  -0.000  -0.001  -0.001  -0.001  -0.000   0.000   0.001   0.001   0.001
 -0.000  -0.001  -0.000  -0.000  -0.006  -0.000  -0.001   0.002   0.000   0.000   0.000   0.001  -0.001  -0.000  -0.000  -0.000
 -0.000  -0.000  -0.001  -0.000  -0.000  -0.006   0.002  -0.001  -0.000   0.000   0.000  -0.002   0.001   0.000  -0.000  -0.000
 -0.006  -0.000  -0.000   0.003  -0.000   0.000  -0.000   0.000   0.005   0.011   0.000   0.000  -0.000  -0.003  -0.008   0.001
 -0.000  -0.006  -0.000  -0.000   0.003  -0.000   0.015  -0.008   0.000  -0.000  -0.000  -0.010   0.005  -0.000  -0.000   0.000
 -0.000  -0.000  -0.006   0.000  -0.000   0.003  -0.023   0.017  -0.000  -0.000  -0.000   0.016  -0.012   0.000   0.000   0.000
  0.000  -0.001   0.002  -0.000   0.015  -0.023   4.910  -2.735  -0.000   0.005   0.003  -3.235   1.833  -0.000  -0.004  -0.002
 -0.000   0.002  -0.001   0.000  -0.008   0.017  -2.735   2.649  -0.002  -0.004  -0.002   1.830  -1.729   0.002   0.004   0.002
 -0.001   0.000  -0.000   0.005   0.000  -0.000  -0.000  -0.002   2.651   2.696   0.868  -0.000   0.002  -1.743  -1.830  -0.587
 -0.001   0.000   0.000   0.011  -0.000  -0.000   0.005  -0.004   2.696   4.761   1.277  -0.004   0.003  -1.832  -3.174  -0.863
 -0.001   0.000   0.000   0.000  -0.000  -0.000   0.003  -0.002   0.868   1.277   1.243  -0.002   0.002  -0.589  -0.865  -0.792
 -0.000   0.001  -0.002   0.000  -0.010   0.016  -3.235   1.830  -0.000  -0.004  -0.002   2.263  -1.382   0.000   0.003   0.002
  0.000  -0.001   0.001  -0.000   0.005  -0.012   1.833  -1.729   0.002   0.003   0.002  -1.382   1.131  -0.001  -0.003  -0.001
  0.001  -0.000   0.000  -0.003  -0.000   0.000  -0.000   0.002  -1.743  -1.832  -0.589   0.000  -0.001   1.146   1.391   0.446
  0.001  -0.000  -0.000  -0.008  -0.000   0.000  -0.004   0.004  -1.830  -3.174  -0.865   0.003  -0.003   1.391   2.232   0.653
  0.001  -0.000  -0.000   0.001   0.000   0.000  -0.002   0.002  -0.587  -0.863  -0.792   0.002  -0.001   0.446   0.653   0.427
 -0.001  -0.000  -0.000   0.000  -0.000   0.000  -0.001   0.001  -0.029  -0.027  -0.010   0.001  -0.000   0.021   0.020   0.006
  0.000   0.000  -0.000  -0.000   0.000  -0.000   0.000  -0.000   0.001  -0.003   0.001  -0.000   0.000  -0.000   0.001  -0.000


------------------------ aborting loop because EDIFF is reached ----------------------------------------


 


 total charge     
 
# of ion       s       p       d       tot
------------------------------------------
    1        0.203   6.179   7.879  14.262
    2        0.203   6.179   7.879  14.262
    3        0.203   6.179   7.879  14.262
    4        0.203   6.179   7.879  14.262
    5        1.567   3.487   0.000   5.054
    6        1.567   3.487   0.000   5.054
    7        1.567   3.487   0.000   5.054
    8        1.567   3.487   0.000   5.054
    9        1.567   3.487   0.000   5.054
   10        1.567   3.487   0.000   5.054
   11        1.567   3.487   0.000   5.054
   12        1.567   3.487   0.000   5.054
   13        1.572   3.477   0.000   5.049
   14        1.572   3.477   0.000   5.049
   15        1.572   3.477   0.000   5.049
   16        1.572   3.477   0.000   5.049
   17        1.572   3.476   0.000   5.049
   18        1.572   3.476   0.000   5.049
   19        1.572   3.477   0.000   5.049
   20        1.572   3.476   0.000   5.049
   21        0.709   1.033   4.092   5.834
   22        0.709   1.033   4.092   5.834
   23        0.709   1.033   4.092   5.834
   24        0.709   1.033   4.092   5.834
--------------------------------------------------
tot         28.766  84.555  47.884 161.206
 


 magnetization (x)
 
# of ion       s       p       d       tot
------------------------------------------
    1        0.006   0.005   1.757   1.768
    2        0.006   0.005   1.757   1.768
    3        0.006   0.005   1.757   1.768
    4        0.006   0.005   1.757   1.768
    5        0.004   0.024   0.000   0.029
    6        0.004   0.024   0.000   0.029
    7        0.004   0.024   0.000   0.029
    8        0.004   0.024   0.000   0.029
    9        0.004   0.025   0.000   0.029
   10        0.004   0.025   0.000   0.029
   11        0.004   0.025   0.000   0.029
   12        0.004   0.025   0.000   0.029
   13        0.008   0.036   0.000   0.043
   14        0.008   0.036   0.000   0.043
   15        0.008   0.036   0.000   0.043
   16        0.008   0.036   0.000   0.044
   17        0.008   0.036   0.000   0.044
   18        0.008   0.036   0.000   0.044
   19        0.008   0.036   0.000   0.044
   20        0.008   0.036   0.000   0.044
   21        0.004   0.005   0.065   0.073
   22        0.004   0.005   0.065   0.073
   23        0.004   0.005   0.065   0.073
   24        0.004   0.005   0.065   0.073
--------------------------------------------------
tot          0.134   0.524   7.288   7.945
 
    CHARGE:  cpu time    0.7978: real time    0.8008
    FORLOC:  cpu time    0.0017: real time    0.0017
    FORNL :  cpu time    4.7579: real time    4.7735
    STRESS:  cpu time   14.2819: real time   14.3248
    FORCOR:  cpu time    0.0169: real time    0.0169
    FORHAR:  cpu time    0.0039: real time    0.0039
    MIXING:  cpu time    0.0012: real time    0.0012
    OFIELD:  cpu time    0.0000: real time    0.0000

  FORCE on cell =-STRESS in cart. coord.  units (eV):
  Direction    XX          YY          ZZ          XY          YZ          ZX
  --------------------------------------------------------------------------------------
  Alpha Z   905.49997   905.49997   905.49997
  Ewald   -5217.55815 -4810.49788 -3667.40587     0.06887    -0.08308    38.01600
  Hartree  2026.23433  2337.74321  3203.58860     0.00981    -0.04877     5.81531
  E(xc)   -1064.83786 -1063.07248 -1064.26635     0.00027     0.00610    -0.33768
  Local     -31.19192  -741.36226 -2728.40869    -0.06305     0.14106   -42.10557
  n-local  -753.29475  -757.18167  -744.03599     0.05301    -0.00344     0.60492
  augment   842.82412   842.94516   839.37655    -0.03782     0.00242     0.43065
  Kinetic  3294.19443  3288.51361  3256.86186     0.02912    -0.03433    -2.85806
  Fock        0.00000     0.00000     0.00000     0.00000     0.00000     0.00000
  -------------------------------------------------------------------------------------
  Total       1.87018     2.58766     1.21008     0.06020    -0.02004    -0.43442
  in kB      11.54100    15.96865     7.46748     0.37153    -0.12369    -2.68083
  external pressure =       11.66 kB  Pullay stress =        0.00 kB


 VOLUME and BASIS-vectors are now :
 -----------------------------------------------------------------------------
  energy-cutoff  :      500.00
  volume of cell :      259.63
      direct lattice vectors                 reciprocal lattice vectors
     9.183406645 -0.000104252  0.048264614     0.108888386  0.000001236  0.000697706
    -0.000064534  5.705387348 -0.000037879     0.000001984  0.175272938  0.000001163
    -0.031749505 -0.000032507  4.955027406    -0.001060631  0.000001328  0.201808435

  length of vectors
     9.183533475  5.705387349  4.955129123     0.108890621  0.175272938  0.201811222


 FORCES acting on ions
    electron-ion (+dipol)            ewald-force                    non-local-force                 convergence-correction
 -----------------------------------------------------------------------------------------------
   0.401E-01 -.256E+03 0.744E-02   -.546E-01 0.257E+03 0.643E-02   0.121E-01 -.787E+00 -.131E-01   -.146E-03 0.185E-01 0.350E-03
   -.252E-01 -.256E+03 0.240E-02   0.831E-02 0.257E+03 0.127E-01   0.147E-01 -.786E+00 -.144E-01   -.149E-03 0.184E-01 0.472E-03
   0.245E-01 0.256E+03 -.464E-01   -.911E-02 -.257E+03 0.319E-01   -.130E-01 0.786E+00 0.144E-01   0.167E-03 -.185E-01 -.330E-03
   -.105E-01 0.256E+03 -.319E-01   0.260E-01 -.257E+03 0.163E-01   -.131E-01 0.787E+00 0.151E-01   0.158E-03 -.186E-01 -.389E-03
   0.518E+02 0.107E+03 -.348E+02   -.393E+02 -.106E+03 0.271E+02   -.128E+02 -.939E+00 0.791E+01   0.157E-02 -.109E-02 -.737E-04
   0.519E+02 0.107E+03 -.348E+02   -.394E+02 -.106E+03 0.271E+02   -.128E+02 -.939E+00 0.792E+01   0.147E-02 -.109E-02 -.319E-04
   -.519E+02 -.107E+03 0.348E+02   0.393E+02 0.106E+03 -.271E+02   0.128E+02 0.945E+00 -.793E+01   -.152E-02 0.105E-02 0.158E-04
   -.519E+02 -.107E+03 0.348E+02   0.393E+02 0.106E+03 -.270E+02   0.128E+02 0.936E+00 -.792E+01   -.152E-02 0.110E-02 0.399E-04
   -.518E+02 0.107E+03 0.348E+02   0.393E+02 -.106E+03 -.271E+02   0.128E+02 -.933E+00 -.788E+01   -.163E-02 -.119E-02 0.182E-03
   -.519E+02 0.107E+03 0.348E+02   0.394E+02 -.106E+03 -.271E+02   0.128E+02 -.925E+00 -.789E+01   -.157E-02 -.117E-02 0.117E-03
   0.518E+02 -.107E+03 -.347E+02   -.393E+02 0.106E+03 0.271E+02   -.128E+02 0.931E+00 0.787E+01   0.167E-02 0.117E-02 -.172E-03
   0.519E+02 -.107E+03 -.348E+02   -.394E+02 0.106E+03 0.271E+02   -.128E+02 0.931E+00 0.788E+01   0.158E-02 0.116E-02 -.142E-03
   0.177E+03 0.105E+03 0.498E+02   -.170E+03 -.948E+02 -.436E+02   -.786E+01 -.110E+02 -.650E+01   0.360E-02 -.465E-02 -.122E-02
   0.177E+03 0.105E+03 0.498E+02   -.170E+03 -.948E+02 -.436E+02   -.787E+01 -.110E+02 -.650E+01   0.364E-02 -.462E-02 -.117E-02
   -.177E+03 -.105E+03 -.498E+02   0.170E+03 0.948E+02 0.436E+02   0.786E+01 0.110E+02 0.650E+01   -.363E-02 0.470E-02 0.118E-02
   -.177E+03 -.105E+03 -.498E+02   0.170E+03 0.948E+02 0.436E+02   0.787E+01 0.110E+02 0.650E+01   -.359E-02 0.470E-02 0.119E-02
   -.177E+03 0.105E+03 -.498E+02   0.170E+03 -.948E+02 0.436E+02   0.791E+01 -.110E+02 0.650E+01   -.347E-02 -.459E-02 0.126E-02
   -.177E+03 0.105E+03 -.498E+02   0.170E+03 -.948E+02 0.436E+02   0.792E+01 -.110E+02 0.649E+01   -.342E-02 -.457E-02 0.128E-02
   0.177E+03 -.105E+03 0.498E+02   -.170E+03 0.948E+02 -.436E+02   -.791E+01 0.110E+02 -.650E+01   0.347E-02 0.453E-02 -.130E-02
   0.177E+03 -.105E+03 0.498E+02   -.170E+03 0.948E+02 -.436E+02   -.791E+01 0.110E+02 -.649E+01   0.340E-02 0.459E-02 -.131E-02
   -.258E-01 0.472E+02 0.124E-01   0.242E-01 -.470E+02 -.103E-01   0.100E-02 0.129E+00 0.193E-01   0.961E-04 -.111E-01 0.659E-04
   0.269E-01 0.472E+02 -.535E-02   -.299E-01 -.470E+02 0.501E-02   0.729E-03 0.128E+00 0.197E-01   0.451E-04 -.112E-01 0.680E-04
   -.218E-01 -.472E+02 0.483E-01   0.249E-01 0.470E+02 -.503E-01   -.729E-03 -.128E+00 -.219E-01   -.318E-04 0.111E-01 -.680E-04
   0.287E-01 -.472E+02 -.231E-01   -.253E-01 0.470E+02 0.236E-01   -.704E-03 -.128E+00 -.184E-01   -.988E-04 0.112E-01 -.844E-04
 -----------------------------------------------------------------------------------------------
   0.679E-02 -.909E-02 0.365E-02   0.142E-13 -.355E-13 0.415E-13   0.157E-02 0.117E-01 -.170E-01   0.863E-04 -.747E-04 -.685E-04
 
 
 POSITION                                       TOTAL-FORCE (eV/Angst)
 -----------------------------------------------------------------------------------
      2.28786      3.72752      1.25079        -0.002869      0.184594      0.001695
      6.87955      3.72749      1.27489        -0.002732      0.183847      0.001676
      2.27202      1.97777      3.72831         0.002173     -0.184990      0.000128
      6.86370      1.97779      3.75245         0.002198     -0.184267     -0.000388
      0.98974      0.62594      4.60785        -0.236445     -0.077019      0.197847
      5.58149      0.62605      4.63187        -0.245234     -0.078725      0.203340
      3.57013      5.07916      0.37139         0.244326      0.082766     -0.209740
      8.16185      5.07910      0.39534         0.233877      0.078783     -0.193233
      3.55433      0.62593      2.84889         0.256215     -0.087293     -0.203828
      8.14589      0.62607      2.87299         0.256407     -0.087640     -0.204129
      1.00555      5.07941      2.13034        -0.248362      0.087051      0.198660
      5.59734      5.07917      2.15438        -0.256460      0.087981      0.203674
      1.18609      2.15659      2.01868        -0.430011     -0.388916     -0.297625
      5.77780      2.15644      2.04279        -0.434554     -0.383520     -0.294907
      3.37396      3.54875      2.96052         0.426859      0.386859      0.296949
      7.96553      3.54879      2.98457         0.432969      0.382970      0.295083
      3.38986      2.15650      0.48293         0.445614     -0.397610      0.294941
      7.98140      2.15643      0.50711         0.450966     -0.392309      0.292470
      1.17000      3.54875      4.49610        -0.444554      0.395106     -0.292379
      5.76187      3.54882      4.52022        -0.451069      0.391911     -0.291293
      9.17538      1.00914      1.28708        -0.000921      0.379118      0.021945
      4.58379      1.00911      1.26287        -0.002605      0.379086      0.020029
      9.15953      4.69604      3.76462         0.001946     -0.378834     -0.023513
      4.56786      4.69614      3.74031         0.002266     -0.378948     -0.017403
 -----------------------------------------------------------------------------------
    total drift:                                0.008449      0.002511     -0.013409


--------------------------------------------------------------------------------------------------------



  FREE ENERGIE OF THE ION-ELECTRON SYSTEM (eV)
  ---------------------------------------------------
  free  energy   TOTEN  =      -184.02869297 eV

  energy  without entropy=     -184.02869297  energy(sigma->0) =     -184.02869297
 


--------------------------------------------------------------------------------------------------------


    POTLOK:  cpu time    0.0213: real time    0.0213


--------------------------------------------------------------------------------------------------------


 writing wavefunctions
     LOOP+:  cpu time  560.3119: real time  561.7031
    4ORBIT:  cpu time    0.0000: real time    0.0000
 


 total charge     
 
# of ion       s       p       d       tot
------------------------------------------
    1        0.203   6.179   7.879  14.262
    2        0.203   6.179   7.879  14.262
    3        0.203   6.179   7.879  14.262
    4        0.203   6.179   7.879  14.262
    5        1.567   3.487   0.000   5.054
    6        1.567   3.487   0.000   5.054
    7        1.567   3.487   0.000   5.054
    8        1.567   3.487   0.000   5.054
    9        1.567   3.487   0.000   5.054
   10        1.567   3.487   0.000   5.054
   11        1.567   3.487   0.000   5.054
   12        1.567   3.487   0.000   5.054
   13        1.572   3.477   0.000   5.049
   14        1.572   3.477   0.000   5.049
   15        1.572   3.477   0.000   5.049
   16        1.572   3.477   0.000   5.049
   17        1.572   3.476   0.000   5.049
   18        1.572   3.476   0.000   5.049
   19        1.572   3.477   0.000   5.049
   20        1.572   3.476   0.000   5.049
   21        0.709   1.033   4.092   5.834
   22        0.709   1.033   4.092   5.834
   23        0.709   1.033   4.092   5.834
   24        0.709   1.033   4.092   5.834
--------------------------------------------------
tot         28.766  84.555  47.884 161.206
 


 magnetization (x)
 
# of ion       s       p       d       tot
------------------------------------------
    1        0.006   0.005   1.757   1.768
    2        0.006   0.005   1.757   1.768
    3        0.006   0.005   1.757   1.768
    4        0.006   0.005   1.757   1.768
    5        0.004   0.024   0.000   0.029
    6        0.004   0.024   0.000   0.029
    7        0.004   0.024   0.000   0.029
    8        0.004   0.024   0.000   0.029
    9        0.004   0.025   0.000   0.029
   10        0.004   0.025   0.000   0.029
   11        0.004   0.025   0.000   0.029
   12        0.004   0.025   0.000   0.029
   13        0.008   0.036   0.000   0.043
   14        0.008   0.036   0.000   0.043
   15        0.008   0.036   0.000   0.043
   16        0.008   0.036   0.000   0.044
   17        0.008   0.036   0.000   0.044
   18        0.008   0.036   0.000   0.044
   19        0.008   0.036   0.000   0.044
   20        0.008   0.036   0.000   0.044
   21        0.004   0.005   0.065   0.073
   22        0.004   0.005   0.065   0.073
   23        0.004   0.005   0.065   0.073
   24        0.004   0.005   0.065   0.073
--------------------------------------------------
tot          0.134   0.524   7.288   7.945
 

 total amount of memory used by VASP MPI-rank0   238175. kBytes
=======================================================================

   base      :      30000. kBytes
   nonlr-proj:       2158. kBytes
   fftplans  :        836. kBytes
   grid      :       2243. kBytes
   one-center:        186. kBytes
   wavefun   :     202752. kBytes
 
  
  
 General timing and accounting informations for this job:
 ========================================================
  
                  Total CPU time used (sec):      606.009
                            User time (sec):      594.941
                          System time (sec):       11.069
                         Elapsed time (sec):      607.684
  
                   Maximum memory used (kb):      400976.
                   Average memory used (kb):           0.
  
                          Minor page faults:       128915
                          Major page faults:            0
                 Voluntary context switches:          586
