 vasp.5.4.4.18Apr17-6-g9f103f2a35 (build Jan 25 2019 22:30:10) complex          
  
 executed on             LinuxIFC date 2021.08.09  14:57:36
 running on   32 total cores
 distrk:  each k-point on   32 cores,    1 groups
 distr:  one band on NCORES_PER_BAND=   4 cores,    8 groups


--------------------------------------------------------------------------------------------------------


 INCAR:
 POTCAR:    PAW_PBE Ni_pv 06Sep2000               
 POTCAR:    PAW_PBE O 08Apr2002                   
 POTCAR:    PAW_PBE W 08Apr2002                   
 POTCAR:    PAW_PBE Cu_pv 06Sep2000               
 POTCAR:    PAW_PBE Ni_pv 06Sep2000               
   VRHFIN =Ni:                                                                  
   LEXCH  = PE                                                                  
   EATOM  =  3501.1230 eV,  257.3253 Ry                                         
                                                                                
   TITEL  = PAW_PBE Ni_pv 06Sep2000                                             
   LULTRA =        F    use ultrasoft PP ?                                      
   IUNSCR =        1    unscreen: 0-lin 1-nonlin 2-no                           
   RPACOR =    1.500    partial core radius                                     
   POMASS =   58.690; ZVAL   =   16.000    mass and valenz                      
   RCORE  =    2.000    outmost cutoff radius                                   
   RWIGS  =    2.000; RWIGS  =    1.058    wigner-seitz radius (au A)           
   ENMAX  =  367.986; ENMIN  =  275.989 eV                                      
   RCLOC  =    1.301    cutoff for local pot                                    
   LCOR   =        T    correct aug charges                                     
   LPAW   =        T    paw PP                                                  
   EAUG   =  703.443                                                            
   DEXC   =    0.000                                                            
   RMAX   =    2.041    core radius for proj-oper                               
   RAUG   =    1.300    factor for augmentation sphere                          
   RDEP   =    2.103    radius for radial grids                                 
   RDEPT  =    1.618    core radius for aug-charge                              
                                                                                
   Atomic configuration                                                         
    8 entries                                                                   
     n  l   j            E        occ.                                          
     1  0  0.50     -8206.4253   2.0000                                         
     2  0  0.50      -976.1748   2.0000                                         
     2  1  1.50      -839.0571   6.0000                                         
     3  0  0.50      -105.9991   2.0000                                         
     3  1  1.50       -66.4603   6.0000                                         
     3  2  2.50        -4.6458   9.0000                                         
     4  0  0.50        -4.4926   1.0000                                         
     4  3  2.50        -1.3606   0.0000                                         
   Description                                                                  
     l       E           TYP  RCUT    TYP  RCUT                                 
     1    -66.4602962     23  1.700                                             
     1     -1.3605826     23  1.700                                             
     2     -4.6457867     23  2.000                                             
     2     -6.0063693     23  2.000                                             
     0     -4.4925576     23  1.900                                             
     0     16.3626226     23  1.900                                             
  local pseudopotential read in
  partial core-charges read in
  partial kinetic energy density read in
  atomic valenz-charges read in
  non local Contribution for L=           1  read in
    real space projection operators read in
  non local Contribution for L=           1  read in
    real space projection operators read in
  non local Contribution for L=           2  read in
    real space projection operators read in
  non local Contribution for L=           2  read in
    real space projection operators read in
  non local Contribution for L=           0  read in
    real space projection operators read in
  non local Contribution for L=           0  read in
    real space projection operators read in
    PAW grid and wavefunctions read in
 
   number of l-projection  operators is LMAX  =           6
   number of lm-projection operators is LMMAX =          18
 
 POTCAR:    PAW_PBE O 08Apr2002                   
   VRHFIN =O: s2p4                                                              
   LEXCH  = PE                                                                  
   EATOM  =   432.3788 eV,   31.7789 Ry                                         
                                                                                
   TITEL  = PAW_PBE O 08Apr2002                                                 
   LULTRA =        F    use ultrasoft PP ?                                      
   IUNSCR =        1    unscreen: 0-lin 1-nonlin 2-no                           
   RPACOR =    1.200    partial core radius                                     
   POMASS =   16.000; ZVAL   =    6.000    mass and valenz                      
   RCORE  =    1.520    outmost cutoff radius                                   
   RWIGS  =    1.550; RWIGS  =    0.820    wigner-seitz radius (au A)           
   ENMAX  =  400.000; ENMIN  =  300.000 eV                                      
   ICORE  =        2    local potential                                         
   LCOR   =        T    correct aug charges                                     
   LPAW   =        T    paw PP                                                  
   EAUG   =  605.392                                                            
   DEXC   =    0.000                                                            
   RMAX   =    1.553    core radius for proj-oper                               
   RAUG   =    1.300    factor for augmentation sphere                          
   RDEP   =    1.550    radius for radial grids                                 
   RDEPT  =    1.329    core radius for aug-charge                              
                                                                                
   Atomic configuration                                                         
    4 entries                                                                   
     n  l   j            E        occ.                                          
     1  0  0.50      -514.6923   2.0000                                         
     2  0  0.50       -23.9615   2.0000                                         
     2  1  0.50        -9.0305   4.0000                                         
     3  2  1.50        -9.5241   0.0000                                         
   Description                                                                  
     l       E           TYP  RCUT    TYP  RCUT                                 
     0    -23.9615318     23  1.200                                             
     0     -9.5240782     23  1.200                                             
     1     -9.0304911     23  1.520                                             
     1      8.1634956     23  1.520                                             
     2     -9.5240782      7  1.500                                             
  local pseudopotential read in
  partial core-charges read in
  partial kinetic energy density read in
  kinetic energy density of atom read in
  atomic valenz-charges read in
  non local Contribution for L=           0  read in
    real space projection operators read in
  non local Contribution for L=           0  read in
    real space projection operators read in
  non local Contribution for L=           1  read in
    real space projection operators read in
  non local Contribution for L=           1  read in
    real space projection operators read in
    PAW grid and wavefunctions read in
 
   number of l-projection  operators is LMAX  =           4
   number of lm-projection operators is LMMAX =           8
 
 POTCAR:    PAW_PBE W 08Apr2002                   
   VRHFIN =W : 6s5d                                                             
   LEXCH  = PE                                                                  
   EATOM  =   204.6103 eV,   15.0384 Ry                                         
                                                                                
   TITEL  = PAW_PBE W 08Apr2002                                                 
   LULTRA =        F    use ultrasoft PP ?                                      
   IUNSCR =        1    unscreen: 0-lin 1-nonlin 2-no                           
   RPACOR =    2.330    partial core radius                                     
   POMASS =  183.850; ZVAL   =    6.000    mass and valenz                      
   RCORE  =    2.750    outmost cutoff radius                                   
   RWIGS  =    2.750; RWIGS  =    1.455    wigner-seitz radius (au A)           
   ENMAX  =  223.057; ENMIN  =  167.293 eV                                      
   RCLOC  =    2.147    cutoff for local pot                                    
   LCOR   =        T    correct aug charges                                     
   LPAW   =        T    paw PP                                                  
   EAUG   =  373.438                                                            
   DEXC   =    0.000                                                            
   RMAX   =    2.801    core radius for proj-oper                               
   RAUG   =    1.300    factor for augmentation sphere                          
   RDEP   =    2.886    radius for radial grids                                 
   RDEPT  =    2.230    core radius for aug-charge                              
                                                                                
   Atomic configuration                                                         
   16 entries                                                                   
     n  l   j            E        occ.                                          
     1  0  0.50    -69465.5836   2.0000                                         
     2  0  0.50    -11986.2642   2.0000                                         
     2  1  1.50    -10479.8616   6.0000                                         
     3  0  0.50     -2759.0758   2.0000                                         
     3  1  1.50     -2313.1857   6.0000                                         
     3  2  2.50     -1801.1185  10.0000                                         
     4  0  0.50      -567.6791   2.0000                                         
     4  1  1.50      -421.4694   6.0000                                         
     4  2  2.50      -236.3473  10.0000                                         
     4  3  3.50       -31.2666  14.0000                                         
     5  0  0.50       -77.1085   2.0000                                         
     5  1  1.50       -41.3856   6.0000                                         
     5  2  2.50        -3.3185   5.0000                                         
     6  0  0.50        -5.1438   1.0000                                         
     6  1  0.50        -3.8096   0.0000                                         
     5  3  2.50        -1.3606   0.0000                                         
   Description                                                                  
     l       E           TYP  RCUT    TYP  RCUT                                 
     2     -3.3185288     23  2.500                                             
     2     -1.5965414     23  2.500                                             
     0     -5.1438054     23  2.500                                             
     0      4.9117504     23  2.500                                             
     1      2.7211652     23  2.750                                             
     1     27.2116520     23  2.750                                             
  local pseudopotential read in
  partial core-charges read in
  partial kinetic energy density read in
  atomic valenz-charges read in
  non local Contribution for L=           2  read in
    real space projection operators read in
  non local Contribution for L=           2  read in
    real space projection operators read in
  non local Contribution for L=           0  read in
    real space projection operators read in
  non local Contribution for L=           0  read in
    real space projection operators read in
  non local Contribution for L=           1  read in
    real space projection operators read in
  non local Contribution for L=           1  read in
    real space projection operators read in
    PAW grid and wavefunctions read in
 
   number of l-projection  operators is LMAX  =           6
   number of lm-projection operators is LMMAX =          18
 
 POTCAR:    PAW_PBE Cu_pv 06Sep2000               
   VRHFIN =Cu: d10 p1                                                           
   LEXCH  = PE                                                                  
   EATOM  =  4120.1201 eV,  302.8203 Ry                                         
                                                                                
   TITEL  = PAW_PBE Cu_pv 06Sep2000                                             
   LULTRA =        F    use ultrasoft PP ?                                      
   IUNSCR =        1    unscreen: 0-lin 1-nonlin 2-no                           
   RPACOR =    1.500    partial core radius                                     
   POMASS =   63.546; ZVAL   =   17.000    mass and valenz                      
   RCORE  =    2.000    outmost cutoff radius                                   
   RWIGS  =    2.000; RWIGS  =    1.058    wigner-seitz radius (au A)           
   ENMAX  =  368.648; ENMIN  =  276.486 eV                                      
   RCLOC  =    1.304    cutoff for local pot                                    
   LCOR   =        T    correct aug charges                                     
   LPAW   =        T    paw PP                                                  
   EAUG   =  758.233                                                            
   DEXC   =    0.000                                                            
   RMAX   =    2.046    core radius for proj-oper                               
   RAUG   =    1.300    factor for augmentation sphere                          
   RDEP   =    2.025    radius for radial grids                                 
   RDEPT  =    1.558    core radius for aug-charge                              
                                                                                
   Atomic configuration                                                         
    8 entries                                                                   
     n  l   j            E        occ.                                          
     1  0  0.50     -8850.2467   2.0000                                         
     2  0  0.50     -1062.3498   2.0000                                         
     2  1  1.50      -916.8226   6.0000                                         
     3  0  0.50      -114.6929   2.0000                                         
     3  1  1.50       -72.1325   6.0000                                         
     3  2  2.50        -5.0394  10.0000                                         
     4  0  0.50        -4.6097   1.0000                                         
     4  3  2.50        -1.3606   0.0000                                         
   Description                                                                  
     l       E           TYP  RCUT    TYP  RCUT                                 
     1    -72.1324777     23  1.700                                             
     1     -1.3605826     23  1.700                                             
     2     -5.0393776     23  2.000                                             
     2     -6.3999602     23  2.000                                             
     0     -4.6097062     23  1.800                                             
     0     14.1620818     23  1.800                                             
  local pseudopotential read in
  partial core-charges read in
  partial kinetic energy density read in
  atomic valenz-charges read in
  non local Contribution for L=           1  read in
    real space projection operators read in
  non local Contribution for L=           1  read in
    real space projection operators read in
  non local Contribution for L=           2  read in
    real space projection operators read in
  non local Contribution for L=           2  read in
    real space projection operators read in
  non local Contribution for L=           0  read in
    real space projection operators read in
  non local Contribution for L=           0  read in
    real space projection operators read in
    PAW grid and wavefunctions read in
 
   number of l-projection  operators is LMAX  =           6
   number of lm-projection operators is LMMAX =          18
 
 Optimization of the real space projectors (new method)

 maximal supplied QI-value         = 18.90
 optimisation between [QCUT,QGAM] = [ 11.34, 22.87] = [ 36.00,146.41] Ry 
 Optimized for a Real-space Cutoff    1.35 Angstroem

   l    n(q)    QCUT    max X(q) W(low)/X(q) W(high)/X(q)  e(spline) 
   1      9    11.338     2.836    0.21E-04    0.44E-04    0.96E-07
   1      9    11.338     4.023    0.81E-04    0.11E-03    0.22E-06
   2      8    11.338    73.368    0.36E-03    0.40E-03    0.33E-06
   2      8    11.338    69.010    0.37E-03    0.41E-03    0.34E-06
   0      9    11.338    54.797    0.66E-04    0.74E-04    0.73E-07
   0      9    11.338    24.266    0.52E-04    0.65E-04    0.65E-07
 Optimization of the real space projectors (new method)

 maximal supplied QI-value         = 24.76
 optimisation between [QCUT,QGAM] = [ 11.39, 22.77] = [ 36.31,145.25] Ry 
 Optimized for a Real-space Cutoff    1.00 Angstroem

   l    n(q)    QCUT    max X(q) W(low)/X(q) W(high)/X(q)  e(spline) 
   0      7    11.387    20.381    0.39E-03    0.13E-02    0.15E-06
   0      7    11.387    15.268    0.42E-03    0.14E-02    0.17E-06
   1      6    11.387     5.964    0.41E-03    0.11E-02    0.17E-06
   1      6    11.387     5.382    0.39E-03    0.87E-03    0.15E-06
 Optimization of the real space projectors (new method)

 maximal supplied QI-value         = 13.61
 optimisation between [QCUT,QGAM] = [ 11.43, 22.86] = [ 36.58,146.31] Ry 
 Optimized for a Real-space Cutoff    1.56 Angstroem

   l    n(q)    QCUT    max X(q) W(low)/X(q) W(high)/X(q)  e(spline) 
   2     10    11.429   130.855    0.22E-03    0.64E-03    0.11E-05
   2     10    11.429   114.007    0.22E-03    0.64E-03    0.11E-05
   0     11    11.429    84.709    0.39E-04    0.67E-04    0.23E-06
   0     11    11.429    49.163    0.35E-04    0.62E-04    0.21E-06
   1     10    11.429    15.765    0.84E-04    0.15E-03    0.24E-06
   1     10    11.429    10.638    0.58E-04    0.12E-03    0.19E-06
 Optimization of the real space projectors (new method)

 maximal supplied QI-value         = 18.90
 optimisation between [QCUT,QGAM] = [ 11.34, 22.87] = [ 36.00,146.41] Ry 
 Optimized for a Real-space Cutoff    1.35 Angstroem

   l    n(q)    QCUT    max X(q) W(low)/X(q) W(high)/X(q)  e(spline) 
   1      9    11.338     3.172    0.27E-04    0.54E-04    0.11E-06
   1      9    11.338     4.083    0.75E-04    0.10E-03    0.21E-06
   2      8    11.338    65.342    0.34E-03    0.39E-03    0.31E-06
   2      8    11.338    61.381    0.35E-03    0.40E-03    0.31E-06
   0      9    11.338    65.742    0.63E-04    0.53E-04    0.82E-07
   0      9    11.338    30.431    0.56E-04    0.48E-04    0.75E-07
  PAW_PBE Ni_pv 06Sep2000               :
 energy of atom  1       EATOM=-3501.1230
 kinetic energy error for atom=    0.0690 (will be added to EATOM!!)
  PAW_PBE O 08Apr2002                   :
 energy of atom  2       EATOM= -432.3788
 kinetic energy error for atom=    0.0224 (will be added to EATOM!!)
  PAW_PBE W 08Apr2002                   :
 energy of atom  3       EATOM= -204.6103
 kinetic energy error for atom=    0.0017 (will be added to EATOM!!)
  PAW_PBE Cu_pv 06Sep2000               :
 energy of atom  4       EATOM=-4120.1201
 kinetic energy error for atom=    0.0655 (will be added to EATOM!!)
 
 
 POSCAR: Ni O4 W                                 
  positions in direct lattice
  velocities in cartesian coordinates
 exchange correlation table for  LEXCH =        8
   RHO(1)=    0.500       N(1)  =     2000
   RHO(2)=  100.500       N(2)  =     4000
 


--------------------------------------------------------------------------------------------------------


 ion  position               nearest neighbor table
   1  0.250  0.648  0.124-  11 1.99  23 2.00  19 2.00  31 2.01  36 2.03  27 2.04
   2  0.750  0.656  0.627-  30 1.95  37 1.96  34 2.00  22 2.00  26 2.11  14 2.12
   3  0.250  0.348  0.874-  31 1.98  24 1.99   8 2.00  28 2.01  16 2.02  36 2.03
   4  0.250  0.652  0.626-  35 1.98  28 1.99  12 2.00  24 2.01  20 2.02  32 2.03
   5  0.250  0.352  0.376-   7 1.99  27 2.00  15 2.00  35 2.01  32 2.03  23 2.04
   6  0.750  0.344  0.873-  26 1.95  33 1.96  38 2.00  18 2.00  30 2.11  10 2.12
   7  0.113  0.125  0.461-  40 1.94   5 1.99  43 2.15
   8  0.118  0.111  0.960-  39 1.95   3 2.00  44 2.11
   9  0.607  0.108  0.468-  42 1.91  48 2.05  45 2.09
  10  0.608  0.102  0.966-  41 1.94  46 2.09   6 2.12
  11  0.387  0.875  0.039-  46 1.94   1 1.99  41 2.15
  12  0.382  0.889  0.540-  45 1.95   4 2.00  42 2.11
  13  0.893  0.892  0.032-  44 1.91  47 2.05  39 2.09
  14  0.892  0.898  0.534-  43 1.94  40 2.09   2 2.12
  15  0.382  0.115  0.290-  41 1.96   5 2.00  45 2.13
  16  0.386  0.107  0.790-  42 1.95   3 2.02  46 2.11
  17  0.894  0.108  0.281-  39 1.92  48 2.07  43 2.07
  18  0.889  0.117  0.785-  40 1.95   6 2.00  44 2.11
  19  0.118  0.885  0.210-  43 1.96   1 2.00  39 2.13
  20  0.114  0.893  0.710-  44 1.95   4 2.02  40 2.11
  21  0.606  0.892  0.219-  45 1.92  47 2.07  41 2.07
  22  0.611  0.883  0.715-  46 1.95   2 2.00  42 2.11
  23  0.133  0.384  0.201-  39 1.85   1 2.00   5 2.04
  24  0.135  0.384  0.704-  40 1.86   3 1.99   4 2.01
  25  0.627  0.376  0.201-  41 1.80  48 2.07  47 2.14
  26  0.632  0.370  0.709-  42 1.84   6 1.95   2 2.11
  27  0.367  0.616  0.299-  45 1.85   5 2.00   1 2.04
  28  0.365  0.616  0.796-  46 1.86   4 1.99   3 2.01
  29  0.873  0.624  0.299-  43 1.80  47 2.07  48 2.14
  30  0.868  0.630  0.791-  44 1.84   2 1.95   6 2.11
  31  0.363  0.376  0.045-  41 1.86   3 1.98   1 2.01
  32  0.368  0.381  0.549-  42 1.84   4 2.03   5 2.03
  33  0.870  0.368  0.038-  39 1.83   6 1.96  47 2.19
  34  0.869  0.390  0.553-  40 1.83   2 2.00  48 2.08
  35  0.137  0.624  0.455-  43 1.86   4 1.98   5 2.01
  36  0.132  0.619  0.951-  44 1.84   3 2.03   1 2.03
  37  0.630  0.632  0.462-  45 1.83   2 1.96  48 2.19
  38  0.631  0.610  0.947-  46 1.83   6 2.00  47 2.08
  39  0.003  0.175  0.121-  33 1.83  23 1.85  17 1.92   8 1.95  13 2.09  19 2.13  44 3.15  43 3.18

  40  0.002  0.181  0.623-  34 1.83  24 1.86   7 1.94  18 1.95  14 2.09  20 2.11  44 3.17  43 3.19

  41  0.498  0.173  0.128-  25 1.80  31 1.86  10 1.94  15 1.96  21 2.07  11 2.15  45 3.18  46 3.19

  42  0.498  0.172  0.628-  26 1.84  32 1.84   9 1.91  16 1.95  22 2.11  12 2.11  45 3.15  46 3.17

  43  0.002  0.827  0.372-  29 1.80  35 1.86  14 1.94  19 1.96  17 2.07   7 2.15  39 3.18  40 3.19

  44  0.002  0.828  0.872-  30 1.84  36 1.84  13 1.91  20 1.95  18 2.11   8 2.11  39 3.15  40 3.17

  45  0.496  0.825  0.379-  37 1.83  27 1.85  21 1.92  12 1.95   9 2.09  15 2.13  42 3.15  41 3.18

  46  0.498  0.819  0.877-  38 1.83  28 1.86  11 1.94  22 1.95  10 2.09  16 2.11  42 3.17  41 3.19

  47  0.750  0.666  0.124-  13 2.05  29 2.07  21 2.07  38 2.08  25 2.14  33 2.19
  48  0.750  0.334  0.376-   9 2.05  25 2.07  17 2.07  34 2.08  29 2.14  37 2.19
 

IMPORTANT INFORMATION: All symmetrisations will be switched off!
NOSYMM: (Re-)initialisation of all symmetry stuff for point group C_1.

 
 
 KPOINTS: Automatic mesh                          

Automatic generation of k-mesh.
Space group operators:
 irot       det(A)        alpha          n_x          n_y          n_z        tau_x        tau_y        tau_z
    1     1.000000     0.000001     1.000000     0.000000     0.000000     0.000000     0.000000     0.000000
 
 Subroutine IBZKPT returns following result:
 ===========================================
 
 Found     68 irreducible k-points:
 
 Following reciprocal coordinates:
            Coordinates               Weight
  0.000000  0.000000  0.000000      1.000000
  0.250000  0.000000  0.000000      2.000000
  0.500000  0.000000  0.000000      1.000000
 -0.000000  0.125000 -0.000000      2.000000
  0.250000  0.125000  0.000000      2.000000
  0.500000  0.125000 -0.000000      2.000000
 -0.250000  0.125000 -0.000000      2.000000
 -0.000000  0.250000 -0.000000      2.000000
  0.250000  0.250000  0.000000      2.000000
  0.500000  0.250000  0.000000      2.000000
 -0.250000  0.250000 -0.000000      2.000000
 -0.000000  0.375000  0.000000      2.000000
  0.250000  0.375000  0.000000      2.000000
  0.500000  0.375000  0.000000      2.000000
 -0.250000  0.375000  0.000000      2.000000
 -0.000000  0.500000 -0.000000      1.000000
  0.250000  0.500000  0.000000      2.000000
  0.500000  0.500000  0.000000      1.000000
  0.000000  0.000000  0.250000      2.000000
  0.250000  0.000000  0.250000      2.000000
  0.500000  0.000000  0.250000      2.000000
 -0.250000 -0.000000  0.250000      2.000000
 -0.000000  0.125000  0.250000      2.000000
  0.250000  0.125000  0.250000      2.000000
  0.500000  0.125000  0.250000      2.000000
 -0.250000  0.125000  0.250000      2.000000
 -0.000000  0.250000  0.250000      2.000000
  0.250000  0.250000  0.250000      2.000000
  0.500000  0.250000  0.250000      2.000000
 -0.250000  0.250000  0.250000      2.000000
 -0.000000  0.375000  0.250000      2.000000
  0.250000  0.375000  0.250000      2.000000
  0.500000  0.375000  0.250000      2.000000
 -0.250000  0.375000  0.250000      2.000000
 -0.000000  0.500000  0.250000      2.000000
  0.250000  0.500000  0.250000      2.000000
  0.500000  0.500000  0.250000      2.000000
 -0.250000  0.500000  0.250000      2.000000
  0.000000 -0.375000  0.250000      2.000000
  0.250000 -0.375000  0.250000      2.000000
  0.500000 -0.375000  0.250000      2.000000
 -0.250000 -0.375000  0.250000      2.000000
  0.000000 -0.250000  0.250000      2.000000
  0.250000 -0.250000  0.250000      2.000000
  0.500000 -0.250000  0.250000      2.000000
 -0.250000 -0.250000  0.250000      2.000000
  0.000000 -0.125000  0.250000      2.000000
  0.250000 -0.125000  0.250000      2.000000
  0.500000 -0.125000  0.250000      2.000000
 -0.250000 -0.125000  0.250000      2.000000
  0.000000  0.000000  0.500000      1.000000
  0.250000  0.000000  0.500000      2.000000
  0.500000  0.000000  0.500000      1.000000
 -0.000000  0.125000  0.500000      2.000000
  0.250000  0.125000  0.500000      2.000000
  0.500000  0.125000  0.500000      2.000000
 -0.250000  0.125000  0.500000      2.000000
 -0.000000  0.250000  0.500000      2.000000
  0.250000  0.250000  0.500000      2.000000
  0.500000  0.250000  0.500000      2.000000
 -0.250000  0.250000  0.500000      2.000000
 -0.000000  0.375000  0.500000      2.000000
  0.250000  0.375000  0.500000      2.000000
  0.500000  0.375000  0.500000      2.000000
 -0.250000  0.375000  0.500000      2.000000
 -0.000000  0.500000  0.500000      1.000000
  0.250000  0.500000  0.500000      2.000000
  0.500000  0.500000  0.500000      1.000000
 
 Following cartesian coordinates:
            Coordinates               Weight
  0.000000  0.000000  0.000000      1.000000
  0.027343 -0.000076  0.000147      2.000000
  0.054686 -0.000152  0.000293      1.000000
 -0.000061  0.022077 -0.000001      2.000000
  0.027282  0.022001  0.000146      2.000000
  0.054625  0.021925  0.000292      2.000000
 -0.027405  0.022153 -0.000147      2.000000
 -0.000123  0.044154 -0.000001      2.000000
  0.027220  0.044078  0.000145      2.000000
  0.054564  0.044002  0.000292      2.000000
 -0.027466  0.044230 -0.000148      2.000000
 -0.000184  0.066231 -0.000002      2.000000
  0.027159  0.066155  0.000145      2.000000
  0.054502  0.066080  0.000291      2.000000
 -0.027527  0.066307 -0.000149      2.000000
 -0.000245  0.088309 -0.000003      1.000000
  0.027098  0.088233  0.000144      2.000000
  0.054441  0.088157  0.000290      1.000000
  0.000107 -0.000001  0.025234      2.000000
  0.027450 -0.000077  0.025380      2.000000
  0.054793 -0.000153  0.025527      2.000000
 -0.027237  0.000075  0.025087      2.000000
  0.000045  0.022076  0.025233      2.000000
  0.027388  0.022000  0.025380      2.000000
  0.054732  0.021924  0.025526      2.000000
 -0.027298  0.022152  0.025087      2.000000
 -0.000016  0.044154  0.025232      2.000000
  0.027327  0.044078  0.025379      2.000000
  0.054670  0.044002  0.025526      2.000000
 -0.027359  0.044229  0.025086      2.000000
 -0.000078  0.066231  0.025232      2.000000
  0.027266  0.066155  0.025378      2.000000
  0.054609  0.066079  0.025525      2.000000
 -0.027421  0.066307  0.025085      2.000000
 -0.000139  0.088308  0.025231      2.000000
  0.027204  0.088232  0.025378      2.000000
  0.054548  0.088156  0.025524      2.000000
 -0.027482  0.088384  0.025085      2.000000
  0.000291 -0.066232  0.025236      2.000000
  0.027634 -0.066308  0.025382      2.000000
  0.054977 -0.066384  0.025529      2.000000
 -0.027053 -0.066156  0.025089      2.000000
  0.000229 -0.044155  0.025235      2.000000
  0.027573 -0.044231  0.025382      2.000000
  0.054916 -0.044307  0.025528      2.000000
 -0.027114 -0.044079  0.025089      2.000000
  0.000168 -0.022078  0.025234      2.000000
  0.027511 -0.022154  0.025381      2.000000
  0.054854 -0.022230  0.025528      2.000000
 -0.027175 -0.022002  0.025088      2.000000
  0.000213 -0.000002  0.050468      1.000000
  0.027556 -0.000077  0.050614      2.000000
  0.054900 -0.000153  0.050761      1.000000
  0.000152  0.022076  0.050467      2.000000
  0.027495  0.022000  0.050613      2.000000
  0.054838  0.021924  0.050760      2.000000
 -0.027191  0.022152  0.050320      2.000000
  0.000090  0.044153  0.050466      2.000000
  0.027434  0.044077  0.050613      2.000000
  0.054777  0.044001  0.050759      2.000000
 -0.027253  0.044229  0.050320      2.000000
  0.000029  0.066230  0.050466      2.000000
  0.027372  0.066154  0.050612      2.000000
  0.054716  0.066078  0.050759      2.000000
 -0.027314  0.066306  0.050319      2.000000
 -0.000032  0.088307  0.050465      1.000000
  0.027311  0.088231  0.050611      2.000000
  0.054654  0.088155  0.050758      1.000000
 
 TETIRR: Found    384 inequivalent tetrahedra from      768


--------------------------------------------------------------------------------------------------------




 Dimension of arrays:
   k-points           NKPTS =     68   k-points in BZ     NKDIM =     68   number of bands    NBANDS=    224
   number of dos      NEDOS =   2001   number of ions     NIONS =     48
   non local maximal  LDIM  =      6   non local SUM 2l+1 LMDIM =     18
   total plane-waves  NPLWV =  86400
   max r-space proj   IRMAX =   2750   max aug-charges    IRDMAX=   9814
   dimension x,y,z NGX =    50 NGY =   32 NGZ =   54
   dimension x,y,z NGXF=   100 NGYF=   64 NGZF=  108
   support grid    NGXF=   100 NGYF=   64 NGZF=  108
   ions per type =               6  32   8   2
   NGX,Y,Z   is equivalent  to a cutoff of   9.09,  9.40,  9.06 a.u.
   NGXF,Y,Z  is equivalent  to a cutoff of  18.18, 18.79, 18.12 a.u.

 SYSTEM =  NiWO4                                   
 POSCAR =  Ni O4 W                                 

 Startparameter for this run:
   NWRITE =      2    write-flag & timer
   PREC   = normal    normal or accurate (medium, high low for compatibility)
   ISTART =      0    job   : 0-new  1-cont  2-samecut
   ICHARG =      2    charge: 1-file 2-atom 10-const
   ISPIN  =      1    spin polarized calculation?
   LNONCOLLINEAR =      F non collinear calculations
   LSORBIT =      F    spin-orbit coupling
   INIWAV =      1    electr: 0-lowe 1-rand  2-diag
   LASPH  =      F    aspherical Exc in radial PAW
   METAGGA=      F    non-selfconsistent MetaGGA calc.

 Electronic Relaxation 1
   ENCUT  =  500.0 eV  36.75 Ry    6.06 a.u.  16.67 10.32 18.06*2*pi/ulx,y,z
   ENINI  =  500.0     initial cutoff
   ENAUG  =  758.2 eV  augmentation charge cutoff
   NELM   =    400;   NELMIN=  2; NELMDL= -5     # of ELM steps 
   EDIFF  = 0.1E-04   stopping-criterion for ELM
   LREAL  =      T    real-space projection
   NLSPLINE    = F    spline interpolate recip. space projectors
   LCOMPAT=      F    compatible to vasp.4.4
   GGA_COMPAT  = T    GGA compatible to vasp.4.4-vasp.4.6
   LMAXPAW     = -100 max onsite density
   LMAXMIX     =    4 max onsite mixed and CHGCAR
   VOSKOWN=      0    Vosko Wilk Nusair interpolation
   ROPT   =   -0.00050  -0.00050  -0.00050  -0.00050
 Ionic relaxation
   EDIFFG = 0.1E-03   stopping-criterion for IOM
   NSW    =      0    number of steps for IOM
   NBLOCK =      1;   KBLOCK =      1    inner block; outer block 
   IBRION =     -1    ionic relax: 0-MD 1-quasi-New 2-CG
   NFREE  =      0    steps in history (QN), initial steepest desc. (CG)
   ISIF   =      2    stress and relaxation
   IWAVPR =     10    prediction:  0-non 1-charg 2-wave 3-comb
   ISYM   =      0    0-nonsym 1-usesym 2-fastsym
   LCORR  =      T    Harris-Foulkes like correction to forces

   POTIM  = 0.5000    time-step for ionic-motion
   TEIN   =    0.0    initial temperature
   TEBEG  =    0.0;   TEEND  =   0.0 temperature during run
   SMASS  =  -3.00    Nose mass-parameter (am)
   estimated Nose-frequenzy (Omega)   =  0.10E-29 period in steps =****** mass=  -0.191E-26a.u.
   SCALEE = 1.0000    scale energy and forces
   NPACO  =    256;   APACO  = 16.0  distance and # of slots for P.C.
   PSTRESS=    0.0 pullay stress

  Mass of Ions in am
   POMASS =  58.69 16.00183.85 63.55
  Ionic Valenz
   ZVAL   =  16.00  6.00  6.00 17.00
  Atomic Wigner-Seitz radii
   RWIGS  =  -1.00 -1.00 -1.00 -1.00
  virtual crystal weights 
   VCA    =   1.00  1.00  1.00  1.00
   NELECT =     370.0000    total number of electrons
   NUPDOWN=      -1.0000    fix difference up-down

 DOS related values:
   EMIN   =  10.00;   EMAX   =-10.00  energy-range for DOS
   EFERMI =   0.00
   ISMEAR =    -5;   SIGMA  =   0.10  broadening in eV -4-tet -1-fermi 0-gaus

 Electronic relaxation 2 (details)
   IALGO  =     38    algorithm
   LDIAG  =      T    sub-space diagonalisation (order eigenvalues)
   LSUBROT=      F    optimize rotation matrix (better conditioning)
   TURBO    =      0    0=normal 1=particle mesh
   IRESTART =      0    0=no restart 2=restart with 2 vectors
   NREBOOT  =      0    no. of reboots
   NMIN     =      0    reboot dimension
   EREF     =   0.00    reference energy to select bands
   IMIX   =      4    mixing-type and parameters
     AMIX     =   0.40;   BMIX     =  1.00
     AMIX_MAG =   1.60;   BMIX_MAG =  1.00
     AMIN     =   0.10
     WC   =   100.;   INIMIX=   1;  MIXPRE=   1;  MAXMIX= -45

 Intra band minimization:
   WEIMIN = 0.0000     energy-eigenvalue tresh-hold
   EBREAK =  0.11E-07  absolut break condition
   DEPER  =   0.30     relativ break condition  

   TIME   =   0.40     timestep for ELM

  volume/ion in A,a.u.               =      10.69        72.11
  Fermi-wavevector in a.u.,A,eV,Ry     =   1.468248  2.774586 29.330780  2.155752
  Thomas-Fermi vector in A             =   2.583768
 
 Write flags
   LWAVE        =      T    write WAVECAR
   LDOWNSAMPLE  =      F    k-point downsampling of WAVECAR
   LCHARG       =      T    write CHGCAR
   LVTOT        =      F    write LOCPOT, total local potential
   LVHAR        =      F    write LOCPOT, Hartree potential only
   LELF         =      F    write electronic localiz. function (ELF)
   LORBIT       =     11    0 simple, 1 ext, 2 COOP (PROOUT), +10 PAW based schemes


 Dipole corrections
   LMONO  =      F    monopole corrections only (constant potential shift)
   LDIPOL =      F    correct potential (dipole corrections)
   IDIPOL =      0    1-x, 2-y, 3-z, 4-all directions 
   EPSILON=  1.0000000 bulk dielectric constant

 Exchange correlation treatment:
   GGA     =    PE    GGA type
   LEXCH   =     8    internal setting for exchange type
   VOSKOWN=      0    Vosko Wilk Nusair interpolation
   LHFCALC =     F    Hartree Fock is set to
   LHFONE  =     F    Hartree Fock one center treatment
   AEXX    =    0.0000 exact exchange contribution

 Linear response parameters
   LEPSILON=     F    determine dielectric tensor
   LRPA    =     F    only Hartree local field effects (RPA)
   LNABLA  =     F    use nabla operator in PAW spheres
   LVEL    =     F    velocity operator in full k-point grid
   LINTERFAST=   F  fast interpolation
   KINTER  =     0    interpolate to denser k-point grid
   CSHIFT  =0.1000    complex shift for real part using Kramers Kronig
   OMEGAMAX=  -1.0    maximum frequency
   DEG_THRESHOLD= 0.2000000E-02 threshold for treating states as degnerate
   RTIME   =   -0.100 relaxation time in fs
  (WPLASMAI=    0.000 imaginary part of plasma frequency in eV, 0.658/RTIME)
   DFIELD  = 0.0000000 0.0000000 0.0000000 field for delta impulse in time
 
 Orbital magnetization related:
   ORBITALMAG=     F  switch on orbital magnetization
   LCHIMAG   =     F  perturbation theory with respect to B field
   DQ        =  0.001000  dq finite difference perturbation B field
   LLRAUG    =     F  two centre corrections for induced B field



--------------------------------------------------------------------------------------------------------


 Static calculation
 charge density and potential will be updated during run
 non-spin polarized calculation
 Variant of blocked Davidson
 Davidson routine will perform the subspace rotation
 perform sub-space diagonalisation
    after iterative eigenvector-optimisation
 modified Broyden-mixing scheme, WC =      100.0
 initial mixing is a Kerker type mixing with AMIX =  0.4000 and BMIX =      1.0000
 Hartree-type preconditioning will be used
 using additional bands           39
 real space projection scheme for non local part
 use partial core corrections
 calculate Harris-corrections to forces 
   (improved forces if not selfconsistent)
 use gradient corrections 
 use of overlap-Matrix (Vanderbilt PP)
 Fermi weights with tetrahedron method with Bloechl corrections


--------------------------------------------------------------------------------------------------------


  energy-cutoff  :      500.00
  volume of cell :      512.89
      direct lattice vectors                 reciprocal lattice vectors
     9.143308904  0.025415196 -0.038616213     0.109372916 -0.000303784  0.000586197
     0.015725669  5.662008893  0.000106817    -0.000490956  0.176617123 -0.000005338
    -0.053100432  0.000151809  9.907575847     0.000426302 -0.000003088  0.100935148

  length of vectors
     9.143425772  5.662030732  9.907718145     0.109374909  0.176617805  0.100936049


 
 k-points in units of 2pi/SCALE and weight: Automatic mesh                          
   0.00000000  0.00000000  0.00000000       0.008
   0.02734323 -0.00007595  0.00014655       0.016
   0.05468646 -0.00015189  0.00029310       0.008
  -0.00006137  0.02207714 -0.00000067       0.016
   0.02728186  0.02200119  0.00014588       0.016
   0.05462509  0.02192525  0.00029243       0.016
  -0.02740460  0.02215309 -0.00014722       0.016
  -0.00012274  0.04415428 -0.00000133       0.016
   0.02722049  0.04407833  0.00014521       0.016
   0.05456372  0.04400239  0.00029176       0.016
  -0.02746597  0.04423023 -0.00014788       0.016
  -0.00018411  0.06623142 -0.00000200       0.016
   0.02715912  0.06615548  0.00014455       0.016
   0.05450235  0.06607953  0.00029110       0.016
  -0.02752734  0.06630737 -0.00014855       0.016
  -0.00024548  0.08830856 -0.00000267       0.008
   0.02709775  0.08823262  0.00014388       0.016
   0.05444098  0.08815667  0.00029043       0.008
   0.00010658 -0.00000077  0.02523379       0.016
   0.02744980 -0.00007672  0.02538034       0.016
   0.05479303 -0.00015266  0.02552689       0.016
  -0.02723665  0.00007517  0.02508724       0.016
   0.00004521  0.02207637  0.02523312       0.016
   0.02738844  0.02200042  0.02537967       0.016
   0.05473166  0.02192448  0.02552622       0.016
  -0.02729802  0.02215231  0.02508657       0.016
  -0.00001616  0.04415351  0.02523245       0.016
   0.02732707  0.04407756  0.02537900       0.016
   0.05467029  0.04400162  0.02552555       0.016
  -0.02735939  0.04422945  0.02508590       0.016
  -0.00007753  0.06623065  0.02523179       0.016
   0.02726570  0.06615470  0.02537833       0.016
   0.05460892  0.06607876  0.02552488       0.016
  -0.02742076  0.06630659  0.02508524       0.016
  -0.00013890  0.08830779  0.02523112       0.016
   0.02720433  0.08823184  0.02537767       0.016
   0.05454756  0.08815590  0.02552422       0.016
  -0.02748213  0.08838374  0.02508457       0.016
   0.00029068 -0.06623219  0.02523579       0.016
   0.02763391 -0.06630814  0.02538234       0.016
   0.05497714 -0.06638408  0.02552889       0.016
  -0.02705254 -0.06615625  0.02508924       0.016
   0.00022931 -0.04415505  0.02523512       0.016
   0.02757254 -0.04423100  0.02538167       0.016
   0.05491577 -0.04430694  0.02552822       0.016
  -0.02711391 -0.04407911  0.02508857       0.016
   0.00016795 -0.02207791  0.02523445       0.016
   0.02751117 -0.02215386  0.02538100       0.016
   0.05485440 -0.02222980  0.02552755       0.016
  -0.02717528 -0.02200197  0.02508790       0.016
   0.00021315 -0.00000154  0.05046757       0.008
   0.02755638 -0.00007749  0.05061412       0.016
   0.05489961 -0.00015344  0.05076067       0.008
   0.00015178  0.02207560  0.05046691       0.016
   0.02749501  0.02199965  0.05061346       0.016
   0.05483824  0.02192370  0.05076001       0.016
  -0.02719145  0.02215154  0.05032036       0.016
   0.00009041  0.04415274  0.05046624       0.016
   0.02743364  0.04407679  0.05061279       0.016
   0.05477687  0.04400084  0.05075934       0.016
  -0.02725282  0.04422868  0.05031969       0.016
   0.00002904  0.06622988  0.05046557       0.016
   0.02737227  0.06615393  0.05061212       0.016
   0.05471550  0.06607799  0.05075867       0.016
  -0.02731419  0.06630582  0.05031902       0.016
  -0.00003233  0.08830702  0.05046491       0.008
   0.02731090  0.08823107  0.05061145       0.016
   0.05465413  0.08815513  0.05075800       0.008
 
 k-points in reciprocal lattice and weights: Automatic mesh                          
   0.00000000  0.00000000  0.00000000       0.008
   0.25000000  0.00000000  0.00000000       0.016
   0.50000000  0.00000000  0.00000000       0.008
  -0.00000000  0.12500000 -0.00000000       0.016
   0.25000000  0.12500000  0.00000000       0.016
   0.50000000  0.12500000 -0.00000000       0.016
  -0.25000000  0.12500000 -0.00000000       0.016
  -0.00000000  0.25000000 -0.00000000       0.016
   0.25000000  0.25000000  0.00000000       0.016
   0.50000000  0.25000000  0.00000000       0.016
  -0.25000000  0.25000000 -0.00000000       0.016
  -0.00000000  0.37500000  0.00000000       0.016
   0.25000000  0.37500000  0.00000000       0.016
   0.50000000  0.37500000  0.00000000       0.016
  -0.25000000  0.37500000  0.00000000       0.016
  -0.00000000  0.50000000 -0.00000000       0.008
   0.25000000  0.50000000  0.00000000       0.016
   0.50000000  0.50000000  0.00000000       0.008
   0.00000000  0.00000000  0.25000000       0.016
   0.25000000  0.00000000  0.25000000       0.016
   0.50000000  0.00000000  0.25000000       0.016
  -0.25000000 -0.00000000  0.25000000       0.016
  -0.00000000  0.12500000  0.25000000       0.016
   0.25000000  0.12500000  0.25000000       0.016
   0.50000000  0.12500000  0.25000000       0.016
  -0.25000000  0.12500000  0.25000000       0.016
  -0.00000000  0.25000000  0.25000000       0.016
   0.25000000  0.25000000  0.25000000       0.016
   0.50000000  0.25000000  0.25000000       0.016
  -0.25000000  0.25000000  0.25000000       0.016
  -0.00000000  0.37500000  0.25000000       0.016
   0.25000000  0.37500000  0.25000000       0.016
   0.50000000  0.37500000  0.25000000       0.016
  -0.25000000  0.37500000  0.25000000       0.016
  -0.00000000  0.50000000  0.25000000       0.016
   0.25000000  0.50000000  0.25000000       0.016
   0.50000000  0.50000000  0.25000000       0.016
  -0.25000000  0.50000000  0.25000000       0.016
   0.00000000 -0.37500000  0.25000000       0.016
   0.25000000 -0.37500000  0.25000000       0.016
   0.50000000 -0.37500000  0.25000000       0.016
  -0.25000000 -0.37500000  0.25000000       0.016
   0.00000000 -0.25000000  0.25000000       0.016
   0.25000000 -0.25000000  0.25000000       0.016
   0.50000000 -0.25000000  0.25000000       0.016
  -0.25000000 -0.25000000  0.25000000       0.016
   0.00000000 -0.12500000  0.25000000       0.016
   0.25000000 -0.12500000  0.25000000       0.016
   0.50000000 -0.12500000  0.25000000       0.016
  -0.25000000 -0.12500000  0.25000000       0.016
   0.00000000  0.00000000  0.50000000       0.008
   0.25000000  0.00000000  0.50000000       0.016
   0.50000000  0.00000000  0.50000000       0.008
  -0.00000000  0.12500000  0.50000000       0.016
   0.25000000  0.12500000  0.50000000       0.016
   0.50000000  0.12500000  0.50000000       0.016
  -0.25000000  0.12500000  0.50000000       0.016
  -0.00000000  0.25000000  0.50000000       0.016
   0.25000000  0.25000000  0.50000000       0.016
   0.50000000  0.25000000  0.50000000       0.016
  -0.25000000  0.25000000  0.50000000       0.016
  -0.00000000  0.37500000  0.50000000       0.016
   0.25000000  0.37500000  0.50000000       0.016
   0.50000000  0.37500000  0.50000000       0.016
  -0.25000000  0.37500000  0.50000000       0.016
  -0.00000000  0.50000000  0.50000000       0.008
   0.25000000  0.50000000  0.50000000       0.016
   0.50000000  0.50000000  0.50000000       0.008
 
 position of ions in fractional coordinates (direct lattice) 
   0.25023324  0.64767267  0.12377428
   0.74952134  0.65588879  0.62698909
   0.25045596  0.34786172  0.87410135
   0.24954887  0.65215148  0.62588300
   0.24976205  0.35230578  0.37622695
   0.75047895  0.34413677  0.87301520
   0.11287679  0.12451815  0.46053205
   0.11814457  0.11098821  0.95971632
   0.60658112  0.10838448  0.46763816
   0.60784275  0.10228733  0.96640300
   0.38712233  0.87547323  0.03945988
   0.38184689  0.88901113  0.54028363
   0.89341468  0.89162162  0.03237307
   0.89215820  0.89772526  0.53359123
   0.38215687  0.11504684  0.28958793
   0.38579352  0.10731989  0.78955608
   0.89447376  0.10762485  0.28069292
   0.88873270  0.11695639  0.78533562
   0.11783751  0.88494192  0.21040905
   0.11419398  0.89269806  0.71045882
   0.60551959  0.89235049  0.21930506
   0.61126031  0.88306917  0.71467020
   0.13276724  0.38385578  0.20107320
   0.13499594  0.38351829  0.70426946
   0.62695340  0.37574799  0.20111953
   0.63227265  0.36994113  0.70883526
   0.36724063  0.61610245  0.29892788
   0.36505894  0.61647045  0.79567764
   0.87304735  0.62424501  0.29888021
   0.86773074  0.63006174  0.79116520
   0.36285302  0.37640700  0.04540003
   0.36811341  0.38122651  0.54923952
   0.87005469  0.36841184  0.03790494
   0.86859500  0.39049752  0.55267021
   0.13714667  0.62359114  0.45460173
   0.13189178  0.61875637  0.95075838
   0.62994373  0.63164443  0.46211594
   0.63140505  0.60950234  0.94732983
   0.00349181  0.17459746  0.12071812
   0.00168573  0.18062004  0.62292659
   0.49752027  0.17339664  0.12787892
   0.49830143  0.17189708  0.62819041
   0.00248051  0.82659578  0.37211790
   0.00169819  0.82811249  0.87182189
   0.49649486  0.82540449  0.37928193
   0.49831589  0.81938377  0.87707413
   0.75003276  0.66636664  0.12442527
   0.74995821  0.33361519  0.37559305
 
 position of ions in cartesian coordinates  (Angst):
   2.29157245  3.67350692  1.21670916
   6.83012600  3.73279260  6.18306836
   2.24905138  1.97609423  8.65059091
   2.25872325  3.69892484  6.19141636
   2.26921399  2.00116335  3.71788985
   6.82091518  1.96771157  8.62052042
   1.00957105  0.70796160  4.55841059
   1.03101630  0.63156460  9.50391176
   5.52303114  0.62916126  4.60974825
   5.50798619  0.59474692  9.55124939
   3.55125109  4.96678198  0.37609602
   3.47663507  5.04337567  5.33825054
   8.18106872  5.07108079  0.28633359
   8.14306141  5.10568380  5.25223971
   3.48061026  0.66115277  2.85436924
   3.48719120  0.61757107  7.80770033
   8.16523745  0.63214872  2.74645670
   8.08609513  0.68491463  7.74646526
   1.08016828  5.01357582  2.08018776
   1.02042348  5.05747446  7.03461028
   5.53884026  5.06791908  2.14949399
   5.56487938  5.01558926  7.05713895
   1.20929116  2.17679967  1.98706198
   1.20294364  2.17502185  6.97243105
   5.72765799  2.14345311  1.96843653
   5.74924224  2.11078691  6.99846261
   3.35160994  3.49775642  2.94753501
   3.30529026  3.49986003  7.86920523
   7.97648765  3.55671485  2.92753127
   7.90182717  3.58958884  7.80508809
   3.32118572  2.14044867  0.43583248
   3.34260477  2.16794696  5.42745780
   7.95895956  2.10806947  0.34198721
   7.91862617  2.23315983  5.44212186
   1.23964124  3.53433320  4.49877169
   1.16517197  3.50690048  9.41468372
   5.74516456  3.59245670  4.55419013
   5.73241266  3.46719877  9.36142481
   0.02826218  0.98867943  1.19590769
  -0.01482416  1.02280969  6.17164661
   4.54491784  0.99443728  1.24777629
   4.52546992  0.98604260  6.20461994
   0.01591919  4.68031221  3.68677887
  -0.01774442  4.68895580  8.63766434
   4.53244588  4.68612364  3.73867991
   4.52256844  4.65215611  8.67052288
   6.86165320  3.79205494  1.20386052
   6.84240174  1.90804955  3.69229169
 


--------------------------------------------------------------------------------------------------------


 k-point  1 :   0.0000 0.0000 0.0000  plane waves:   13031
 k-point  2 :   0.2500 0.0000 0.0000  plane waves:   13028
 k-point  3 :   0.5000 0.0000 0.0000  plane waves:   13008
 k-point  4 :  -0.0000 0.1250-0.0000  plane waves:   13034
 k-point  5 :   0.2500 0.1250 0.0000  plane waves:   13029
 k-point  6 :   0.5000 0.1250-0.0000  plane waves:   13015
 k-point  7 :  -0.2500 0.1250-0.0000  plane waves:   13012
 k-point  8 :  -0.0000 0.2500-0.0000  plane waves:   13016
 k-point  9 :   0.2500 0.2500 0.0000  plane waves:   13014
 k-point 10 :   0.5000 0.2500 0.0000  plane waves:   13000
 k-point 11 :  -0.2500 0.2500-0.0000  plane waves:   13001
 k-point 12 :  -0.0000 0.3750 0.0000  plane waves:   13022
 k-point 13 :   0.2500 0.3750 0.0000  plane waves:   13026
 k-point 14 :   0.5000 0.3750 0.0000  plane waves:   13007
 k-point 15 :  -0.2500 0.3750 0.0000  plane waves:   13011
 k-point 16 :  -0.0000 0.5000-0.0000  plane waves:   12994
 k-point 17 :   0.2500 0.5000 0.0000  plane waves:   13022
 k-point 18 :   0.5000 0.5000 0.0000  plane waves:   13022
 k-point 19 :   0.0000 0.0000 0.2500  plane waves:   13041
 k-point 20 :   0.2500 0.0000 0.2500  plane waves:   13025
 k-point 21 :   0.5000 0.0000 0.2500  plane waves:   13018
 k-point 22 :  -0.2500-0.0000 0.2500  plane waves:   13038
 k-point 23 :  -0.0000 0.1250 0.2500  plane waves:   13040
 k-point 24 :   0.2500 0.1250 0.2500  plane waves:   13024
 k-point 25 :   0.5000 0.1250 0.2500  plane waves:   13014
 k-point 26 :  -0.2500 0.1250 0.2500  plane waves:   13027
 k-point 27 :  -0.0000 0.2500 0.2500  plane waves:   13028
 k-point 28 :   0.2500 0.2500 0.2500  plane waves:   13028
 k-point 29 :   0.5000 0.2500 0.2500  plane waves:   13026
 k-point 30 :  -0.2500 0.2500 0.2500  plane waves:   13024
 k-point 31 :  -0.0000 0.3750 0.2500  plane waves:   13011
 k-point 32 :   0.2500 0.3750 0.2500  plane waves:   13019
 k-point 33 :   0.5000 0.3750 0.2500  plane waves:   13033
 k-point 34 :  -0.2500 0.3750 0.2500  plane waves:   13005
 k-point 35 :  -0.0000 0.5000 0.2500  plane waves:   13015
 k-point 36 :   0.2500 0.5000 0.2500  plane waves:   13018
 k-point 37 :   0.5000 0.5000 0.2500  plane waves:   13010
 k-point 38 :  -0.2500 0.5000 0.2500  plane waves:   13017
 k-point 39 :   0.0000-0.3750 0.2500  plane waves:   13021
 k-point 40 :   0.2500-0.3750 0.2500  plane waves:   13019
 k-point 41 :   0.5000-0.3750 0.2500  plane waves:   13021
 k-point 42 :  -0.2500-0.3750 0.2500  plane waves:   13008
 k-point 43 :   0.0000-0.2500 0.2500  plane waves:   13021
 k-point 44 :   0.2500-0.2500 0.2500  plane waves:   13012
 k-point 45 :   0.5000-0.2500 0.2500  plane waves:   13025
 k-point 46 :  -0.2500-0.2500 0.2500  plane waves:   13033
 k-point 47 :   0.0000-0.1250 0.2500  plane waves:   13022
 k-point 48 :   0.2500-0.1250 0.2500  plane waves:   13018
 k-point 49 :   0.5000-0.1250 0.2500  plane waves:   13015
 k-point 50 :  -0.2500-0.1250 0.2500  plane waves:   13040
 k-point 51 :   0.0000 0.0000 0.5000  plane waves:   13044
 k-point 52 :   0.2500 0.0000 0.5000  plane waves:   13041
 k-point 53 :   0.5000 0.0000 0.5000  plane waves:   13040
 k-point 54 :  -0.0000 0.1250 0.5000  plane waves:   13028
 k-point 55 :   0.2500 0.1250 0.5000  plane waves:   13039
 k-point 56 :   0.5000 0.1250 0.5000  plane waves:   13028
 k-point 57 :  -0.2500 0.1250 0.5000  plane waves:   13032
 k-point 58 :  -0.0000 0.2500 0.5000  plane waves:   13025
 k-point 59 :   0.2500 0.2500 0.5000  plane waves:   13027
 k-point 60 :   0.5000 0.2500 0.5000  plane waves:   13031
 k-point 61 :  -0.2500 0.2500 0.5000  plane waves:   13023
 k-point 62 :  -0.0000 0.3750 0.5000  plane waves:   13018
 k-point 63 :   0.2500 0.3750 0.5000  plane waves:   13003
 k-point 64 :   0.5000 0.3750 0.5000  plane waves:   13028
 k-point 65 :  -0.2500 0.3750 0.5000  plane waves:   13015
 k-point 66 :  -0.0000 0.5000 0.5000  plane waves:   13032
 k-point 67 :   0.2500 0.5000 0.5000  plane waves:   13011
 k-point 68 :   0.5000 0.5000 0.5000  plane waves:   12996

 maximum and minimum number of plane-waves per node :      3293     3221

 maximum number of plane-waves:     13044
 maximum index in each direction: 
   IXMAX=   16   IYMAX=   10   IZMAX=   18
   IXMIN=  -17   IYMIN=  -10   IZMIN=  -18


 real space projection operators:
  total allocation   :       6225.81 KBytes
  max/ min on nodes  :       1619.89       1493.02


 parallel 3D FFT for wavefunctions:
    minimum data exchange during FFTs selected (reduces bandwidth)
 parallel 3D FFT for charge:
    minimum data exchange during FFTs selected (reduces bandwidth)


 total amount of memory used by VASP MPI-rank0   142731. kBytes
=======================================================================

   base      :      30000. kBytes
   nonlr-proj:       4213. kBytes
   fftplans  :       1587. kBytes
   grid      :       2924. kBytes
   one-center:        186. kBytes
   wavefun   :     103821. kBytes
 
     INWAV:  cpu time    0.0000: real time    0.0002
 Broyden mixing: mesh for mixing (old mesh)
   NGX = 33   NGY = 21   NGZ = 37
  (NGX  =100   NGY  = 64   NGZ  =108)
  gives a total of  25641 points

 initial charge density was supplied:
 charge density of overlapping atoms calculated
 number of electron     370.0000000 magnetization 
 keeping initial charge density in first step


--------------------------------------------------------------------------------------------------------


 Maximum index for non-local projection operator          775
 Maximum index for augmentation-charges         1030 (set IRDMAX)


--------------------------------------------------------------------------------------------------------


 First call to EWALD:  gamma=   0.221
 Maximum number of real-space cells 2x 4x 2
 Maximum number of reciprocal cells 3x 2x 3

    FEWALD:  cpu time    0.0017: real time    0.0026


--------------------------------------- Iteration      1(   1)  ---------------------------------------


    POTLOK:  cpu time    0.0158: real time    0.0178
    SETDIJ:  cpu time    0.0042: real time    0.0042
     EDDAV:  cpu time   19.3873: real time   19.4224
 BZINTS: Fermi energy: 23.483101;370.000000 electrons
         Band energy:1021.451808;  BLOECHL correction: -0.060294
       DOS:  cpu time    0.1234: real time    0.1234
    --------------------------------------------
      LOOP:  cpu time   19.5307: real time   19.5678

 eigenvalue-minimisations  : 33784
 total energy-change (2. order) : 0.4386746E+04  (-0.2088164E+05)
 number of electron     370.0000000 magnetization 
 augmentation part      370.0000000 magnetization 

 Free energy of the ion-electron system (eV)
  ---------------------------------------------------
  alpha Z        PSCENC =      1845.05069640
  Ewald energy   TEWEN  =    -27851.06761557
  -Hartree energ DENC   =    -15872.68996841
  -exchange      EXHF   =         0.00000000
  -V(xc)+E(xc)   XCENC  =      1246.45530023
  PAW double counting   =     37467.60136202   -38188.76428185
  entropy T*S    EENTRO =         0.00000000
  eigenvalues    EBANDS =      1021.45180840
  atomic energy  EATOM  =     44718.70844369
  Solvation  Ediel_sol  =         0.00000000
  ---------------------------------------------------
  free energy    TOTEN  =      4386.74574490 eV

  energy without entropy =     4386.74574490  energy(sigma->0) =     4386.74574490


--------------------------------------------------------------------------------------------------------




--------------------------------------- Iteration      1(   2)  ---------------------------------------


     EDDAV:  cpu time   18.5612: real time   18.5651
 BZINTS: Fermi energy:  8.538856;370.000000 electrons
         Band energy:***********;  BLOECHL correction: -0.034107
       DOS:  cpu time    0.1215: real time    0.1215
    --------------------------------------------
      LOOP:  cpu time   18.6826: real time   18.6865

 eigenvalue-minimisations  : 32592
 total energy-change (2. order) :-0.4267110E+04  (-0.4017655E+04)
 number of electron     370.0000000 magnetization 
 augmentation part      370.0000000 magnetization 

 Free energy of the ion-electron system (eV)
  ---------------------------------------------------
  alpha Z        PSCENC =      1845.05069640
  Ewald energy   TEWEN  =    -27851.06761557
  -Hartree energ DENC   =    -15872.68996841
  -exchange      EXHF   =         0.00000000
  -V(xc)+E(xc)   XCENC  =      1246.45530023
  PAW double counting   =     37467.60136202   -38188.76428185
  entropy T*S    EENTRO =         0.00000000
  eigenvalues    EBANDS =     -3245.65840622
  atomic energy  EATOM  =     44718.70844369
  Solvation  Ediel_sol  =         0.00000000
  ---------------------------------------------------
  free energy    TOTEN  =       119.63553028 eV

  energy without entropy =      119.63553028  energy(sigma->0) =      119.63553028


--------------------------------------------------------------------------------------------------------




--------------------------------------- Iteration      1(   3)  ---------------------------------------


     EDDAV:  cpu time   19.4366: real time   19.4400
 BZINTS: Fermi energy:  6.769126;370.000000 electrons
         Band energy:***********;  BLOECHL correction: -0.010501
       DOS:  cpu time    0.1333: real time    0.1333
    --------------------------------------------
      LOOP:  cpu time   19.5699: real time   19.5732

 eigenvalue-minimisations  : 34472
 total energy-change (2. order) :-0.5630233E+03  (-0.5401090E+03)
 number of electron     370.0000000 magnetization 
 augmentation part      370.0000000 magnetization 

 Free energy of the ion-electron system (eV)
  ---------------------------------------------------
  alpha Z        PSCENC =      1845.05069640
  Ewald energy   TEWEN  =    -27851.06761557
  -Hartree energ DENC   =    -15872.68996841
  -exchange      EXHF   =         0.00000000
  -V(xc)+E(xc)   XCENC  =      1246.45530023
  PAW double counting   =     37467.60136202   -38188.76428185
  entropy T*S    EENTRO =         0.00000000
  eigenvalues    EBANDS =     -3808.68170266
  atomic energy  EATOM  =     44718.70844369
  Solvation  Ediel_sol  =         0.00000000
  ---------------------------------------------------
  free energy    TOTEN  =      -443.38776616 eV

  energy without entropy =     -443.38776616  energy(sigma->0) =     -443.38776616


--------------------------------------------------------------------------------------------------------




--------------------------------------- Iteration      1(   4)  ---------------------------------------


     EDDAV:  cpu time   20.4624: real time   20.4655
 BZINTS: Fermi energy:  6.602200;370.000000 electrons
         Band energy:***********;  BLOECHL correction: -0.006237
       DOS:  cpu time    0.1346: real time    0.1346
    --------------------------------------------
      LOOP:  cpu time   20.5970: real time   20.6001

 eigenvalue-minimisations  : 36760
 total energy-change (2. order) :-0.2753948E+02  (-0.2659408E+02)
 number of electron     370.0000000 magnetization 
 augmentation part      370.0000000 magnetization 

 Free energy of the ion-electron system (eV)
  ---------------------------------------------------
  alpha Z        PSCENC =      1845.05069640
  Ewald energy   TEWEN  =    -27851.06761557
  -Hartree energ DENC   =    -15872.68996841
  -exchange      EXHF   =         0.00000000
  -V(xc)+E(xc)   XCENC  =      1246.45530023
  PAW double counting   =     37467.60136202   -38188.76428185
  entropy T*S    EENTRO =         0.00000000
  eigenvalues    EBANDS =     -3836.22118654
  atomic energy  EATOM  =     44718.70844369
  Solvation  Ediel_sol  =         0.00000000
  ---------------------------------------------------
  free energy    TOTEN  =      -470.92725004 eV

  energy without entropy =     -470.92725004  energy(sigma->0) =     -470.92725004


--------------------------------------------------------------------------------------------------------




--------------------------------------- Iteration      1(   5)  ---------------------------------------


     EDDAV:  cpu time   21.4286: real time   21.4314
 BZINTS: Fermi energy:  6.597138;370.000000 electrons
         Band energy:***********;  BLOECHL correction: -0.006250
       DOS:  cpu time    0.1372: real time    0.1372
    CHARGE:  cpu time    0.4522: real time    0.4523
    MIXING:  cpu time    0.0010: real time    0.0011
    --------------------------------------------
      LOOP:  cpu time   22.0191: real time   22.0220

 eigenvalue-minimisations  : 39000
 total energy-change (2. order) :-0.9209551E+00  (-0.9172678E+00)
 number of electron     370.0000086 magnetization 
 augmentation part      102.0552012 magnetization 

 Broyden mixing:
  rms(total) = 0.15033E+02    rms(broyden)= 0.15030E+02
  rms(prec ) = 0.16102E+02
  weight for this iteration     100.00

 Free energy of the ion-electron system (eV)
  ---------------------------------------------------
  alpha Z        PSCENC =      1845.05069640
  Ewald energy   TEWEN  =    -27851.06761557
  -Hartree energ DENC   =    -15872.68996841
  -exchange      EXHF   =         0.00000000
  -V(xc)+E(xc)   XCENC  =      1246.45530023
  PAW double counting   =     37467.60136202   -38188.76428185
  entropy T*S    EENTRO =         0.00000000
  eigenvalues    EBANDS =     -3837.14214165
  atomic energy  EATOM  =     44718.70844369
  Solvation  Ediel_sol  =         0.00000000
  ---------------------------------------------------
  free energy    TOTEN  =      -471.84820515 eV

  energy without entropy =     -471.84820515  energy(sigma->0) =     -471.84820515


--------------------------------------------------------------------------------------------------------




--------------------------------------- Iteration      1(   6)  ---------------------------------------


    POTLOK:  cpu time    0.0131: real time    0.0132
    SETDIJ:  cpu time    0.0038: real time    0.0038
     EDDAV:  cpu time   21.7832: real time   21.7879
 BZINTS: Fermi energy:  4.890922;370.000000 electrons
         Band energy:***********;  BLOECHL correction: -0.002288
       DOS:  cpu time    0.1348: real time    0.1348
    CHARGE:  cpu time    0.4511: real time    0.4511
    MIXING:  cpu time    0.0009: real time    0.0009
    --------------------------------------------
      LOOP:  cpu time   22.3869: real time   22.3918

 eigenvalue-minimisations  : 39784
 total energy-change (2. order) : 0.2987786E+02  (-0.6398486E+02)
 number of electron     369.9999966 magnetization 
 augmentation part      104.8973048 magnetization 

 Broyden mixing:
  rms(total) = 0.14190E+02    rms(broyden)= 0.14187E+02
  rms(prec ) = 0.17474E+02
  weight for this iteration     100.00

 eigenvalues of (default mixing * dielectric matrix)
  average eigenvalue GAMMA=   0.5505
  0.5505

 Free energy of the ion-electron system (eV)
  ---------------------------------------------------
  alpha Z        PSCENC =      1845.05069640
  Ewald energy   TEWEN  =    -27851.06761557
  -Hartree energ DENC   =    -15826.52103751
  -exchange      EXHF   =         0.00000000
  -V(xc)+E(xc)   XCENC  =      1274.65175768
  PAW double counting   =     41944.18266748   -42632.14424777
  entropy T*S    EENTRO =         0.00000000
  eigenvalues    EBANDS =     -3914.83100954
  atomic energy  EATOM  =     44718.70844369
  Solvation  Ediel_sol  =         0.00000000
  ---------------------------------------------------
  free energy    TOTEN  =      -441.97034514 eV

  energy without entropy =     -441.97034514  energy(sigma->0) =     -441.97034514


--------------------------------------------------------------------------------------------------------




--------------------------------------- Iteration      1(   7)  ---------------------------------------


    POTLOK:  cpu time    0.0131: real time    0.0141
    SETDIJ:  cpu time    0.0038: real time    0.0038
     EDDAV:  cpu time   21.0769: real time   21.0827
 BZINTS: Fermi energy:  6.090392;370.000000 electrons
         Band energy:***********;  BLOECHL correction: -0.006628
       DOS:  cpu time    0.1388: real time    0.1388
    CHARGE:  cpu time    0.4538: real time    0.4539
    MIXING:  cpu time    0.0007: real time    0.0007
    --------------------------------------------
      LOOP:  cpu time   21.6871: real time   21.6941

 eigenvalue-minimisations  : 37968
 total energy-change (2. order) : 0.3559006E+01  (-0.2516497E+02)
 number of electron     370.0000057 magnetization 
 augmentation part       99.8545162 magnetization 

 Broyden mixing:
  rms(total) = 0.13723E+02    rms(broyden)= 0.13720E+02
  rms(prec ) = 0.15107E+02
  weight for this iteration     100.00

 eigenvalues of (default mixing * dielectric matrix)
  average eigenvalue GAMMA=   0.5627
  0.8887  0.2367

 Free energy of the ion-electron system (eV)
  ---------------------------------------------------
  alpha Z        PSCENC =      1845.05069640
  Ewald energy   TEWEN  =    -27851.06761557
  -Hartree energ DENC   =    -15812.60491424
  -exchange      EXHF   =         0.00000000
  -V(xc)+E(xc)   XCENC  =      1272.59264055
  PAW double counting   =     44117.50990052   -44845.76749887
  entropy T*S    EENTRO =         0.00000000
  eigenvalues    EBANDS =     -3882.83299209
  atomic energy  EATOM  =     44718.70844369
  Solvation  Ediel_sol  =         0.00000000
  ---------------------------------------------------
  free energy    TOTEN  =      -438.41133962 eV

  energy without entropy =     -438.41133962  energy(sigma->0) =     -438.41133962


--------------------------------------------------------------------------------------------------------




--------------------------------------- Iteration      1(   8)  ---------------------------------------


    POTLOK:  cpu time    0.0133: real time    0.0134
    SETDIJ:  cpu time    0.0038: real time    0.0038
     EDDAV:  cpu time   22.3740: real time   22.3805
 BZINTS: Fermi energy:  4.458681;370.000000 electrons
         Band energy:***********;  BLOECHL correction: -0.002295
       DOS:  cpu time    0.1451: real time    0.1451
    CHARGE:  cpu time    0.4532: real time    0.4535
    MIXING:  cpu time    0.0007: real time    0.0007
    --------------------------------------------
      LOOP:  cpu time   22.9900: real time   22.9971

 eigenvalue-minimisations  : 41024
 total energy-change (2. order) : 0.8338579E+01  (-0.1226044E+02)
 number of electron     369.9999892 magnetization 
 augmentation part      105.9046948 magnetization 

 Broyden mixing:
  rms(total) = 0.10292E+02    rms(broyden)= 0.10290E+02
  rms(prec ) = 0.12889E+02
  weight for this iteration     100.00

 eigenvalues of (default mixing * dielectric matrix)
  average eigenvalue GAMMA=   0.5311
  0.9995  0.2968  0.2968

 Free energy of the ion-electron system (eV)
  ---------------------------------------------------
  alpha Z        PSCENC =      1845.05069640
  Ewald energy   TEWEN  =    -27851.06761557
  -Hartree energ DENC   =    -15538.41219232
  -exchange      EXHF   =         0.00000000
  -V(xc)+E(xc)   XCENC  =      1262.08339462
  PAW double counting   =     46365.80327323   -47107.59485212
  entropy T*S    EENTRO =         0.00000000
  eigenvalues    EBANDS =     -4124.64390902
  atomic energy  EATOM  =     44718.70844369
  Solvation  Ediel_sol  =         0.00000000
  ---------------------------------------------------
  free energy    TOTEN  =      -430.07276108 eV

  energy without entropy =     -430.07276108  energy(sigma->0) =     -430.07276108


--------------------------------------------------------------------------------------------------------




--------------------------------------- Iteration      1(   9)  ---------------------------------------


    POTLOK:  cpu time    0.0129: real time    0.0130
    SETDIJ:  cpu time    0.0038: real time    0.0038
     EDDAV:  cpu time   21.8048: real time   21.8109
 BZINTS: Fermi energy:  6.035566;370.000000 electrons
         Band energy:***********;  BLOECHL correction: -0.014023
       DOS:  cpu time    0.1381: real time    0.1381
    CHARGE:  cpu time    0.4531: real time    0.4531
    MIXING:  cpu time    0.0007: real time    0.0007
    --------------------------------------------
      LOOP:  cpu time   22.4134: real time   22.4196

 eigenvalue-minimisations  : 39824
 total energy-change (2. order) :-0.1049752E+02  (-0.7108428E+01)
 number of electron     370.0000084 magnetization 
 augmentation part      103.4345214 magnetization 

 Broyden mixing:
  rms(total) = 0.86252E+01    rms(broyden)= 0.86204E+01
  rms(prec ) = 0.10633E+02
  weight for this iteration     100.00

 eigenvalues of (default mixing * dielectric matrix)
  average eigenvalue GAMMA=   0.7310
  1.8484  0.6270  0.3028  0.1458

 Free energy of the ion-electron system (eV)
  ---------------------------------------------------
  alpha Z        PSCENC =      1845.05069640
  Ewald energy   TEWEN  =    -27851.06761557
  -Hartree energ DENC   =    -15656.97031828
  -exchange      EXHF   =         0.00000000
  -V(xc)+E(xc)   XCENC  =      1266.43402299
  PAW double counting   =     47668.19077992   -48432.97438457
  entropy T*S    EENTRO =         0.00000000
  eigenvalues    EBANDS =     -3997.94190119
  atomic energy  EATOM  =     44718.70844369
  Solvation  Ediel_sol  =         0.00000000
  ---------------------------------------------------
  free energy    TOTEN  =      -440.57027660 eV

  energy without entropy =     -440.57027660  energy(sigma->0) =     -440.57027660


--------------------------------------------------------------------------------------------------------




--------------------------------------- Iteration      1(  10)  ---------------------------------------


    POTLOK:  cpu time    0.0132: real time    0.0133
    SETDIJ:  cpu time    0.0038: real time    0.0038
     EDDAV:  cpu time   21.6766: real time   21.6871
 BZINTS: Fermi energy:  5.505549;370.000000 electrons
         Band energy:***********;  BLOECHL correction: -0.010818
       DOS:  cpu time    0.1431: real time    0.1431
    CHARGE:  cpu time    0.4536: real time    0.4538
    MIXING:  cpu time    0.0009: real time    0.0009
    --------------------------------------------
      LOOP:  cpu time   22.2911: real time   22.3019

 eigenvalue-minimisations  : 39440
 total energy-change (2. order) : 0.4430617E+02  (-0.7189323E+01)
 number of electron     370.0000075 magnetization 
 augmentation part      100.9684877 magnetization 

 Broyden mixing:
  rms(total) = 0.60555E+01    rms(broyden)= 0.60554E+01
  rms(prec ) = 0.84991E+01
  weight for this iteration     100.00

 eigenvalues of (default mixing * dielectric matrix)
  average eigenvalue GAMMA=   0.6693
  1.7098  0.5902  0.5902  0.2881  0.1681

 Free energy of the ion-electron system (eV)
  ---------------------------------------------------
  alpha Z        PSCENC =      1845.05069640
  Ewald energy   TEWEN  =    -27851.06761557
  -Hartree energ DENC   =    -15924.84443435
  -exchange      EXHF   =         0.00000000
  -V(xc)+E(xc)   XCENC  =      1277.66186430
  PAW double counting   =     51807.32069034   -52630.21063074
  entropy T*S    EENTRO =         0.00000000
  eigenvalues    EBANDS =     -3638.88312382
  atomic energy  EATOM  =     44718.70844369
  Solvation  Ediel_sol  =         0.00000000
  ---------------------------------------------------
  free energy    TOTEN  =      -396.26410975 eV

  energy without entropy =     -396.26410975  energy(sigma->0) =     -396.26410975


--------------------------------------------------------------------------------------------------------




--------------------------------------- Iteration      1(  11)  ---------------------------------------


    POTLOK:  cpu time    0.0132: real time    0.0136
    SETDIJ:  cpu time    0.0038: real time    0.0038
     EDDAV:  cpu time   22.6734: real time   22.6794
 BZINTS: Fermi energy:  4.144036;370.000000 electrons
         Band energy:***********;  BLOECHL correction:  0.000000
       DOS:  cpu time    0.0248: real time    0.0248
    CHARGE:  cpu time    0.4540: real time    0.4541
    MIXING:  cpu time    0.0009: real time    0.0009
    --------------------------------------------
      LOOP:  cpu time   23.1701: real time   23.1766

 eigenvalue-minimisations  : 41744
 total energy-change (2. order) : 0.3114841E+01  (-0.4017109E+01)
 number of electron     370.0000028 magnetization 
 augmentation part      104.4914857 magnetization 

 Broyden mixing:
  rms(total) = 0.73489E+01    rms(broyden)= 0.73458E+01
  rms(prec ) = 0.10341E+02
  weight for this iteration     100.00

 eigenvalues of (default mixing * dielectric matrix)
  average eigenvalue GAMMA=   0.5709
  1.7070  0.5977  0.5977  0.2878  0.1672  0.0680

 Free energy of the ion-electron system (eV)
  ---------------------------------------------------
  alpha Z        PSCENC =      1845.05069640
  Ewald energy   TEWEN  =    -27851.06761557
  -Hartree energ DENC   =    -15738.45900606
  -exchange      EXHF   =         0.00000000
  -V(xc)+E(xc)   XCENC  =      1270.42694254
  PAW double counting   =     51664.32269894   -52462.51767136
  entropy T*S    EENTRO =         0.00000000
  eigenvalues    EBANDS =     -3839.61375762
  atomic energy  EATOM  =     44718.70844369
  Solvation  Ediel_sol  =         0.00000000
  ---------------------------------------------------
  free energy    TOTEN  =      -393.14926905 eV

  energy without entropy =     -393.14926905  energy(sigma->0) =     -393.14926905


--------------------------------------------------------------------------------------------------------




--------------------------------------- Iteration      1(  12)  ---------------------------------------


    POTLOK:  cpu time    0.0128: real time    0.0129
    SETDIJ:  cpu time    0.0038: real time    0.0038
     EDDAV:  cpu time   22.6488: real time   22.6548
 BZINTS: Fermi energy:  3.915436;370.000000 electrons
         Band energy:***********;  BLOECHL correction:  0.000000
       DOS:  cpu time    0.0281: real time    0.0281
    CHARGE:  cpu time    0.4537: real time    0.4539
    MIXING:  cpu time    0.0009: real time    0.0009
    --------------------------------------------
      LOOP:  cpu time   23.1481: real time   23.1544

 eigenvalue-minimisations  : 41712
 total energy-change (2. order) : 0.6902536E+01  (-0.4835072E+01)
 number of electron     370.0000021 magnetization 
 augmentation part      105.1957476 magnetization 

 Broyden mixing:
  rms(total) = 0.42664E+01    rms(broyden)= 0.42622E+01
  rms(prec ) = 0.54328E+01
  weight for this iteration     100.00

 eigenvalues of (default mixing * dielectric matrix)
  average eigenvalue GAMMA=   0.5148
  1.6963  0.6136  0.6136  0.2860  0.1548  0.1548  0.0850

 Free energy of the ion-electron system (eV)
  ---------------------------------------------------
  alpha Z        PSCENC =      1845.05069640
  Ewald energy   TEWEN  =    -27851.06761557
  -Hartree energ DENC   =    -15741.61565677
  -exchange      EXHF   =         0.00000000
  -V(xc)+E(xc)   XCENC  =      1270.45836844
  PAW double counting   =     51684.14856202   -52481.95877766
  entropy T*S    EENTRO =         0.00000000
  eigenvalues    EBANDS =     -3829.97075382
  atomic energy  EATOM  =     44718.70844369
  Solvation  Ediel_sol  =         0.00000000
  ---------------------------------------------------
  free energy    TOTEN  =      -386.24673328 eV

  energy without entropy =     -386.24673328  energy(sigma->0) =     -386.24673328


--------------------------------------------------------------------------------------------------------




--------------------------------------- Iteration      1(  13)  ---------------------------------------


    POTLOK:  cpu time    0.0128: real time    0.0129
    SETDIJ:  cpu time    0.0038: real time    0.0038
     EDDAV:  cpu time   22.5350: real time   22.5408
 BZINTS: Fermi energy:  4.028857;370.000000 electrons
         Band energy:***********;  BLOECHL correction:  0.000000
       DOS:  cpu time    0.0248: real time    0.0250
    CHARGE:  cpu time    0.4532: real time    0.4532
    MIXING:  cpu time    0.0010: real time    0.0010
    --------------------------------------------
      LOOP:  cpu time   23.0306: real time   23.0368

 eigenvalue-minimisations  : 41368
 total energy-change (2. order) : 0.2305235E+01  (-0.1308651E+01)
 number of electron     370.0000024 magnetization 
 augmentation part      104.9218988 magnetization 

 Broyden mixing:
  rms(total) = 0.39995E+01    rms(broyden)= 0.39940E+01
  rms(prec ) = 0.50700E+01
  weight for this iteration     100.00

 eigenvalues of (default mixing * dielectric matrix)
  average eigenvalue GAMMA=   0.5040
  1.6750  0.6968  0.6968  0.2774  0.2774  0.2132  0.1307  0.0653

 Free energy of the ion-electron system (eV)
  ---------------------------------------------------
  alpha Z        PSCENC =      1845.05069640
  Ewald energy   TEWEN  =    -27851.06761557
  -Hartree energ DENC   =    -15764.66137403
  -exchange      EXHF   =         0.00000000
  -V(xc)+E(xc)   XCENC  =      1270.92820186
  PAW double counting   =     51691.28021388   -52489.16008664
  entropy T*S    EENTRO =         0.00000000
  eigenvalues    EBANDS =     -3805.01997782
  atomic energy  EATOM  =     44718.70844369
[...]
  0.001  -0.000   0.001   0.002   0.000  -0.000   0.000   0.004  -0.004  -0.026  -0.012  -0.003  -0.001  -0.002   0.012   0.007


------------------------ aborting loop because EDIFF is reached ----------------------------------------


 


 total charge     
 
# of ion       s       p       d       tot
------------------------------------------
    1        0.214   6.202   7.873  14.289
    2        0.212   6.196   7.869  14.276
    3        0.216   6.204   7.872  14.292
    4        0.216   6.204   7.869  14.290
    5        0.214   6.202   7.868  14.285
    6        0.212   6.196   7.872  14.279
    7        1.570   3.460   0.000   5.030
    8        1.570   3.464   0.000   5.034
    9        1.572   3.473   0.000   5.046
   10        1.574   3.451   0.000   5.025
   11        1.570   3.460   0.000   5.030
   12        1.570   3.464   0.000   5.034
   13        1.572   3.473   0.000   5.046
   14        1.574   3.451   0.000   5.025
   15        1.569   3.459   0.000   5.028
   16        1.571   3.462   0.000   5.034
   17        1.573   3.473   0.000   5.046
   18        1.570   3.461   0.000   5.030
   19        1.569   3.459   0.000   5.028
   20        1.571   3.462   0.000   5.034
   21        1.573   3.473   0.000   5.046
   22        1.570   3.460   0.000   5.030
   23        1.575   3.441   0.000   5.016
   24        1.574   3.444   0.000   5.018
   25        1.581   3.435   0.000   5.016
   26        1.575   3.440   0.000   5.015
   27        1.575   3.441   0.000   5.016
   28        1.574   3.444   0.000   5.018
   29        1.581   3.435   0.000   5.016
   30        1.575   3.440   0.000   5.015
   31        1.573   3.446   0.000   5.019
   32        1.577   3.439   0.000   5.016
   33        1.577   3.439   0.000   5.016
   34        1.577   3.441   0.000   5.018
   35        1.573   3.446   0.000   5.019
   36        1.577   3.439   0.000   5.016
   37        1.577   3.439   0.000   5.016
   38        1.577   3.441   0.000   5.018
   39        0.697   1.008   4.143   5.848
   40        0.694   1.002   4.124   5.819
   41        0.699   1.001   4.147   5.847
   42        0.696   1.006   4.145   5.847
   43        0.699   1.001   4.147   5.847
   44        0.696   1.006   4.145   5.847
   45        0.697   1.008   4.143   5.848
   46        0.694   1.002   4.124   5.820
   47        0.173   6.133   8.896  15.202
   48        0.173   6.133   8.894  15.200
--------------------------------------------------
tot         57.556 167.958  98.133 323.647
 
    CHARGE:  cpu time    0.4540: real time    0.4541
    FORLOC:  cpu time    0.0053: real time    0.0053
    FORNL :  cpu time    2.7732: real time    2.7735
    STRESS:  cpu time    8.3401: real time    8.3407
    FORCOR:  cpu time    0.0182: real time    0.0182
    FORHAR:  cpu time    0.0079: real time    0.0080
    MIXING:  cpu time    0.0028: real time    0.0028
    OFIELD:  cpu time    0.0001: real time    0.0001

  FORCE on cell =-STRESS in cart. coord.  units (eV):
  Direction    XX          YY          ZZ          XY          YZ          ZX
  --------------------------------------------------------------------------------------
  Alpha Z  1845.05070  1845.05070  1845.05070
  Ewald  -10692.46785 -9769.46351 -7389.26900   -57.12575    49.09888    78.34185
  Hartree  4210.35677  4953.39003  6753.74234   -27.03892    25.90549    -0.49813
  E(xc)   -2154.82490 -2152.46504 -2154.49356    -0.12867     0.02319    -1.20418
  Local      46.73783 -1603.58077 -5737.14444    79.72742   -71.93890   -67.84891
  n-local -1505.21140 -1513.70353 -1494.92428    -0.97470     0.63712     0.40723
  augment  1695.70510  1699.20212  1688.63015     2.14129    -1.55306    -2.71005
  Kinetic  6554.32865  6541.17790  6488.05173     3.45387    -2.18171    -6.54644
  Fock        0.00000     0.00000     0.00000     0.00000     0.00000     0.00000
  -------------------------------------------------------------------------------------
  Total      -0.32510    -0.39210    -0.35637     0.05456    -0.00898    -0.05863
  in kB      -1.01553    -1.22483    -1.11323     0.17043    -0.02807    -0.18315
  external pressure =       -1.12 kB  Pullay stress =        0.00 kB


 VOLUME and BASIS-vectors are now :
 -----------------------------------------------------------------------------
  energy-cutoff  :      500.00
  volume of cell :      512.89
      direct lattice vectors                 reciprocal lattice vectors
     9.143308904  0.025415196 -0.038616213     0.109372916 -0.000303784  0.000586197
     0.015725669  5.662008893  0.000106817    -0.000490956  0.176617123 -0.000005338
    -0.053100432  0.000151809  9.907575847     0.000426302 -0.000003088  0.100935148

  length of vectors
     9.143425772  5.662030732  9.907718145     0.109374909  0.176617805  0.100936049


 FORCES acting on ions
    electron-ion (+dipol)            ewald-force                    non-local-force                 convergence-correction
 -----------------------------------------------------------------------------------------------
   -.387E+01 -.261E+03 -.125E+02   0.376E+01 0.263E+03 0.126E+02   0.104E+00 -.132E+01 -.365E-01   0.278E-02 0.634E-01 -.443E-01
   -.359E+00 -.264E+03 0.341E+02   0.332E+00 0.264E+03 -.343E+02   0.190E-01 -.722E+00 0.169E+00   0.884E-02 -.871E-01 0.925E-01
   -.649E+01 0.266E+03 -.430E+01   0.639E+01 -.267E+03 0.477E+01   0.107E+00 0.122E+01 -.195E+00   0.832E-03 -.735E-01 -.278E+00
   0.667E+01 -.266E+03 0.441E+01   -.656E+01 0.267E+03 -.463E+01   -.108E+00 -.121E+01 0.196E+00   -.739E-02 0.555E-01 0.285E-01
   0.390E+01 0.261E+03 0.123E+02   -.379E+01 -.262E+03 -.127E+02   -.103E+00 0.133E+01 0.382E-01   -.733E-02 -.670E-01 0.274E+00
   0.225E+00 0.264E+03 -.339E+02   -.192E+00 -.265E+03 0.344E+02   -.183E-01 0.718E+00 -.167E+00   -.151E-01 0.810E-01 -.278E+00
   0.786E+02 0.129E+03 -.392E+02   -.687E+02 -.130E+03 0.317E+02   -.974E+01 0.814E+00 0.734E+01   -.123E+00 -.325E-01 0.974E-01
   0.684E+02 0.124E+03 -.485E+02   -.565E+02 -.125E+03 0.425E+02   -.118E+02 0.451E+00 0.612E+01   -.120E+00 -.263E-01 -.786E-01
   0.590E+02 0.993E+02 -.385E+02   -.457E+02 -.972E+02 0.306E+02   -.134E+02 -.213E+01 0.784E+01   0.144E+00 0.357E-01 0.759E-01
   0.436E+02 0.876E+02 -.353E+02   -.305E+02 -.856E+02 0.285E+02   -.133E+02 -.204E+01 0.696E+01   0.163E+00 0.603E-01 -.121E+00
   -.786E+02 -.129E+03 0.392E+02   0.686E+02 0.130E+03 -.317E+02   0.975E+01 -.811E+00 -.735E+01   0.174E+00 0.874E-01 -.103E+00
   -.684E+02 -.124E+03 0.486E+02   0.565E+02 0.125E+03 -.425E+02   0.118E+02 -.468E+00 -.612E+01   0.862E-01 -.162E-02 0.717E-01
   -.589E+02 -.993E+02 0.385E+02   0.457E+02 0.972E+02 -.306E+02   0.134E+02 0.214E+01 -.784E+01   -.127E+00 -.512E-02 -.727E-01
   -.436E+02 -.876E+02 0.353E+02   0.305E+02 0.856E+02 -.285E+02   0.133E+02 0.204E+01 -.695E+01   -.178E+00 -.827E-01 0.117E+00
   -.693E+02 0.127E+03 0.477E+02   0.581E+02 -.127E+03 -.419E+02   0.111E+02 0.624E+00 -.590E+01   0.119E+00 -.287E-01 0.524E-01
   -.696E+02 0.118E+03 0.374E+02   0.577E+02 -.118E+03 -.307E+02   0.117E+02 0.180E-01 -.662E+01   0.122E+00 -.267E-01 -.728E-01
   -.571E+02 0.945E+02 0.433E+02   0.436E+02 -.919E+02 -.363E+02   0.136E+02 -.265E+01 -.710E+01   -.142E+00 0.419E-01 0.774E-01
   -.679E+02 0.119E+03 0.469E+02   0.571E+02 -.119E+03 -.411E+02   0.110E+02 -.125E+00 -.578E+01   -.173E+00 0.586E-01 -.285E-01
   0.694E+02 -.127E+03 -.478E+02   -.581E+02 0.127E+03 0.418E+02   -.111E+02 -.622E+00 0.591E+01   -.157E+00 0.925E-01 0.742E-01
   0.695E+02 -.118E+03 -.373E+02   -.577E+02 0.118E+03 0.307E+02   -.117E+02 -.134E-01 0.663E+01   -.101E+00 -.728E-02 -.351E-01
   0.572E+02 -.946E+02 -.434E+02   -.436E+02 0.919E+02 0.363E+02   -.136E+02 0.266E+01 0.710E+01   0.122E+00 -.275E-02 0.213E-01
   0.678E+02 -.119E+03 -.468E+02   -.570E+02 0.119E+03 0.411E+02   -.110E+02 0.122E+00 0.578E+01   0.189E+00 -.884E-01 -.744E-01
   0.203E+03 0.122E+03 0.407E+02   -.197E+03 -.113E+03 -.341E+02   -.529E+01 -.909E+01 -.665E+01   -.179E+00 -.876E-01 0.369E-01
   0.205E+03 0.121E+03 0.584E+02   -.200E+03 -.112E+03 -.527E+02   -.509E+01 -.891E+01 -.563E+01   -.123E+00 0.114E-01 -.588E-01
   0.160E+03 0.841E+02 0.543E+02   -.149E+03 -.704E+02 -.476E+02   -.106E+02 -.138E+02 -.671E+01   0.140E+00 0.278E-02 0.489E-01
   0.186E+03 0.104E+03 0.805E+02   -.180E+03 -.935E+02 -.767E+02   -.643E+01 -.107E+02 -.386E+01   0.212E+00 0.927E-01 0.878E-02
   -.203E+03 -.122E+03 -.408E+02   0.197E+03 0.113E+03 0.340E+02   0.529E+01 0.909E+01 0.665E+01   0.170E+00 0.241E-01 0.150E+00
   -.205E+03 -.121E+03 -.583E+02   0.199E+03 0.112E+03 0.528E+02   0.508E+01 0.893E+01 0.563E+01   0.124E+00 0.342E-01 -.929E-01
   -.160E+03 -.840E+02 -.544E+02   0.149E+03 0.703E+02 0.476E+02   0.106E+02 0.138E+02 0.671E+01   -.135E+00 -.464E-01 0.843E-01
   -.186E+03 -.104E+03 -.804E+02   0.180E+03 0.935E+02 0.767E+02   0.643E+01 0.107E+02 0.385E+01   -.218E+00 -.673E-01 -.145E+00
   -.206E+03 0.130E+03 -.628E+02   0.200E+03 -.122E+03 0.576E+02   0.514E+01 -.820E+01 0.534E+01   0.180E+00 -.102E+00 -.730E-01
   -.199E+03 0.119E+03 -.442E+02   0.193E+03 -.109E+03 0.379E+02   0.590E+01 -.998E+01 0.623E+01   0.129E+00 0.405E-02 0.942E-01
   -.168E+03 0.865E+02 -.856E+02   0.160E+03 -.739E+02 0.815E+02   0.832E+01 -.126E+02 0.423E+01   -.168E+00 0.765E-02 -.140E+00
   -.185E+03 0.106E+03 -.290E+02   0.178E+03 -.956E+02 0.214E+02   0.757E+01 -.102E+02 0.754E+01   -.197E+00 0.103E+00 0.734E-01
   0.206E+03 -.130E+03 0.628E+02   -.200E+03 0.121E+03 -.576E+02   -.513E+01 0.820E+01 -.533E+01   -.113E+00 0.380E-01 0.118E+00
   0.199E+03 -.119E+03 0.443E+02   -.193E+03 0.109E+03 -.379E+02   -.590E+01 0.999E+01 -.623E+01   -.186E+00 0.220E-01 -.179E+00
   0.168E+03 -.864E+02 0.856E+02   -.160E+03 0.739E+02 -.816E+02   -.832E+01 0.126E+02 -.423E+01   0.198E+00 -.385E-01 0.189E+00
   0.185E+03 -.106E+03 0.290E+02   -.178E+03 0.956E+02 -.214E+02   -.758E+01 0.102E+02 -.755E+01   0.161E+00 -.741E-01 -.127E+00
   -.809E+00 0.391E+02 -.815E+01   0.716E+00 -.391E+02 0.798E+01   0.249E+00 0.671E-02 0.202E+00   -.150E+00 -.148E-03 -.256E-01
   0.137E+01 0.503E+02 0.160E+01   -.133E+01 -.501E+02 -.165E+01   0.111E+00 -.215E+00 0.318E-01   -.151E+00 0.102E-01 0.168E-01
   0.306E+01 0.452E+02 0.567E+01   -.286E+01 -.449E+02 -.543E+01   -.356E+00 -.285E+00 -.222E+00   0.150E+00 -.432E-02 -.195E-01
   -.351E+01 0.420E+02 0.134E-02   0.345E+01 -.420E+02 -.746E-01   -.946E-01 -.868E-02 0.448E-01   0.151E+00 0.704E-02 0.257E-01
   -.307E+01 -.452E+02 -.575E+01   0.286E+01 0.449E+02 0.542E+01   0.357E+00 0.284E+00 0.221E+00   -.139E+00 -.203E-02 0.976E-01
   0.351E+01 -.420E+02 0.582E-01   -.344E+01 0.420E+02 0.871E-01   0.943E-01 0.830E-02 -.434E-01   -.156E+00 -.498E-02 -.976E-01
   0.821E+00 -.391E+02 0.813E+01   -.718E+00 0.391E+02 -.803E+01   -.249E+00 -.580E-02 -.203E+00   0.141E+00 0.201E-02 0.975E-01
   -.135E+01 -.504E+02 -.159E+01   0.130E+01 0.501E+02 0.171E+01   -.111E+00 0.215E+00 -.296E-01   0.156E+00 0.118E-03 -.932E-01
   -.186E+01 -.227E+03 -.153E+02   0.194E+01 0.228E+03 0.157E+02   -.852E-01 -.108E+01 -.351E+00   -.164E-02 -.750E-01 -.941E-01
   0.186E+01 0.227E+03 0.152E+02   -.195E+01 -.228E+03 -.158E+02   0.846E-01 0.109E+01 0.348E+00   0.811E-02 0.718E-01 0.286E+00
 -----------------------------------------------------------------------------------------------
   0.344E-01 0.116E-02 -.335E-02   -.153E-12 0.171E-12 -.103E-12   0.140E-02 0.371E-01 0.106E-01   -.162E-01 -.244E-01 -.214E-01
 
 
 POSITION                                       TOTAL-FORCE (eV/Angst)
 -----------------------------------------------------------------------------------
      2.29157      3.67351      1.21671         0.000632      0.006266      0.000403
      6.83013      3.73279      6.18307         0.000301     -0.005869      0.000501
      2.24905      1.97609      8.65059        -0.000606     -0.001584      0.000040
      2.25872      3.69892      6.19142         0.000104     -0.000241     -0.000550
      2.26921      2.00116      3.71789        -0.000033     -0.002237      0.000248
      6.82092      1.96771      8.62052        -0.000990      0.002954     -0.000096
      1.00957      0.70796      4.55841         0.000549     -0.003348      0.004207
      1.03102      0.63156      9.50391         0.000654     -0.006646      0.005682
      5.52303      0.62916      4.60975         0.000746      0.001953     -0.000461
      5.50799      0.59475      9.55125         0.012081      0.006498      0.001970
      3.55125      4.96678      0.37610        -0.001066      0.002735     -0.004601
      3.47664      5.04338      5.33825         0.000694     -0.001657     -0.004619
      8.18107      5.07108      0.28633         0.001082      0.000378      0.000533
      8.14306      5.10568      5.25224        -0.004152     -0.008032      0.000070
      3.48061      0.66115      2.85437         0.002028     -0.003476     -0.002741
      3.48719      0.61757      7.80770        -0.000761     -0.003077     -0.000265
      8.16524      0.63215      2.74646        -0.001301      0.000053      0.001901
      8.08610      0.68491      7.74647        -0.005983     -0.000456      0.000736
      1.08017      5.01358      2.08019        -0.005947      0.003434      0.005792
      1.02042      5.05747      7.03461         0.000595      0.002008      0.000061
      5.53884      5.06792      2.14949        -0.001238     -0.000319     -0.000519
      5.56488      5.01559      7.05714         0.000890     -0.004145      0.001024
      1.20929      2.17680      1.98706        -0.002522     -0.004850     -0.001914
      1.20294      2.17502      6.97243        -0.000164     -0.002561      0.000870
      5.72766      2.14345      1.96844         0.006548      0.006201     -0.004963
      5.74924      2.11079      6.99846         0.008074      0.005128     -0.001230
      3.35161      3.49776      2.94754         0.005813      0.002321     -0.000902
      3.30529      3.49986      7.86921        -0.001246      0.003750     -0.005040
      7.97649      3.55671      2.92753        -0.004275     -0.000376      0.004184
      7.90183      3.58959      7.80509        -0.005235     -0.006013     -0.005093
      3.32119      2.14045      0.43583         0.004175     -0.004473      0.004269
      3.34260      2.16795      5.42746         0.008130      0.002669      0.004493
      7.95896      2.10807      0.34199        -0.001859      0.001090     -0.004604
      7.91863      2.23316      5.44212        -0.009231      0.007613      0.001630
      1.23964      3.53433      4.49877        -0.000212      0.006921      0.002699
      1.16517      3.50690      9.41468        -0.004837      0.000516     -0.004824
      5.74516      3.59246      4.55419         0.001537     -0.001549      0.005507
      5.73241      3.46720      9.36142        -0.000409      0.000256     -0.005248
      0.02826      0.98868      1.19591         0.005456      0.001543      0.003555
     -0.01482      1.02281      6.17165         0.004675      0.000016     -0.000431
      4.54492      0.99444      1.24778        -0.006299      0.001917      0.000305
      4.52547      0.98604      6.20462        -0.006103     -0.000947     -0.002468
      0.01592      4.68031      3.68678         0.004634     -0.000839     -0.003608
     -0.01774      4.68896      8.63766         0.006463     -0.001167      0.004575
      4.53245      4.68612      3.73868        -0.006143     -0.002635     -0.004654
      4.52257      4.65216      8.67052        -0.004729     -0.000936      0.003671
      6.86165      3.79205      1.20386         0.000476      0.001000     -0.000301
      6.84240      1.90805      3.69229        -0.000996      0.000212      0.000203
 -----------------------------------------------------------------------------------
    total drift:                                0.019581      0.013936     -0.014185


--------------------------------------------------------------------------------------------------------



  FREE ENERGIE OF THE ION-ELECTRON SYSTEM (eV)
  ---------------------------------------------------
  free  energy   TOTEN  =      -377.26921301 eV

  energy  without entropy=     -377.26921301  energy(sigma->0) =     -377.26921301
 


--------------------------------------------------------------------------------------------------------


    POTLOK:  cpu time    0.0175: real time    0.0175


--------------------------------------------------------------------------------------------------------


 writing wavefunctions
     LOOP+:  cpu time  771.5718: real time  771.7853
    4ORBIT:  cpu time    0.0000: real time    0.0000
 


 total charge     
 
# of ion       s       p       d       tot
------------------------------------------
    1        0.214   6.202   7.873  14.289
    2        0.212   6.196   7.869  14.276
    3        0.216   6.204   7.872  14.292
    4        0.216   6.204   7.869  14.290
    5        0.214   6.202   7.868  14.285
    6        0.212   6.196   7.872  14.279
    7        1.570   3.460   0.000   5.030
    8        1.570   3.464   0.000   5.034
    9        1.572   3.473   0.000   5.046
   10        1.574   3.451   0.000   5.025
   11        1.570   3.460   0.000   5.030
   12        1.570   3.464   0.000   5.034
   13        1.572   3.473   0.000   5.046
   14        1.574   3.451   0.000   5.025
   15        1.569   3.459   0.000   5.028
   16        1.571   3.462   0.000   5.034
   17        1.573   3.473   0.000   5.046
   18        1.570   3.461   0.000   5.030
   19        1.569   3.459   0.000   5.028
   20        1.571   3.462   0.000   5.034
   21        1.573   3.473   0.000   5.046
   22        1.570   3.460   0.000   5.030
   23        1.575   3.441   0.000   5.016
   24        1.574   3.444   0.000   5.018
   25        1.581   3.435   0.000   5.016
   26        1.575   3.440   0.000   5.015
   27        1.575   3.441   0.000   5.016
   28        1.574   3.444   0.000   5.018
   29        1.581   3.435   0.000   5.016
   30        1.575   3.440   0.000   5.015
   31        1.573   3.446   0.000   5.019
   32        1.577   3.439   0.000   5.016
   33        1.577   3.439   0.000   5.016
   34        1.577   3.441   0.000   5.018
   35        1.573   3.446   0.000   5.019
   36        1.577   3.439   0.000   5.016
   37        1.577   3.439   0.000   5.016
   38        1.577   3.441   0.000   5.018
   39        0.697   1.008   4.143   5.848
   40        0.694   1.002   4.124   5.819
   41        0.699   1.001   4.147   5.847
   42        0.696   1.006   4.145   5.847
   43        0.699   1.001   4.147   5.847
   44        0.696   1.006   4.145   5.847
   45        0.697   1.008   4.143   5.848
   46        0.694   1.002   4.124   5.820
   47        0.173   6.133   8.896  15.202
   48        0.173   6.133   8.894  15.200
--------------------------------------------------
tot         57.556 167.958  98.133 323.647
 
 BZINTS: Fermi energy:  4.350753;370.000000 electrons
         Band energy:***********;  BLOECHL correction: -0.008609

 total amount of memory used by VASP MPI-rank0   142731. kBytes
=======================================================================

   base      :      30000. kBytes
   nonlr-proj:       4213. kBytes
   fftplans  :       1587. kBytes
   grid      :       2924. kBytes
   one-center:        186. kBytes
   wavefun   :     103821. kBytes
 
  
  
 General timing and accounting informations for this job:
 ========================================================
  
                  Total CPU time used (sec):      794.853
                            User time (sec):      787.188
                          System time (sec):        7.665
                         Elapsed time (sec):      795.081
  
                   Maximum memory used (kb):      250608.
                   Average memory used (kb):           0.
  
                          Minor page faults:        77565
                          Major page faults:            0
                 Voluntary context switches:          601
