 vasp.5.4.4.18Apr17-6-g9f103f2a35 (build Jan 25 2019 22:30:10) complex          
  
 executed on             LinuxIFC date 2021.08.23  21:50:43
 running on   32 total cores
 distrk:  each k-point on   32 cores,    1 groups
 distr:  one band on NCORES_PER_BAND=   4 cores,    8 groups


--------------------------------------------------------------------------------------------------------


 INCAR:
 POTCAR:    PAW_PBE Ni_pv 06Sep2000               
 POTCAR:    PAW_PBE O 08Apr2002                   
 POTCAR:    PAW_PBE W 08Apr2002                   
 POTCAR:    PAW_PBE Cu_pv 06Sep2000               
 POTCAR:    PAW_PBE Ni_pv 06Sep2000               
   VRHFIN =Ni:                                                                  
   LEXCH  = PE                                                                  
   EATOM  =  3501.1230 eV,  257.3253 Ry                                         
                                                                                
   TITEL  = PAW_PBE Ni_pv 06Sep2000                                             
   LULTRA =        F    use ultrasoft PP ?                                      
   IUNSCR =        1    unscreen: 0-lin 1-nonlin 2-no                           
   RPACOR =    1.500    partial core radius                                     
   POMASS =   58.690; ZVAL   =   16.000    mass and valenz                      
   RCORE  =    2.000    outmost cutoff radius                                   
   RWIGS  =    2.000; RWIGS  =    1.058    wigner-seitz radius (au A)           
   ENMAX  =  367.986; ENMIN  =  275.989 eV                                      
   RCLOC  =    1.301    cutoff for local pot                                    
   LCOR   =        T    correct aug charges                                     
   LPAW   =        T    paw PP                                                  
   EAUG   =  703.443                                                            
   DEXC   =    0.000                                                            
   RMAX   =    2.041    core radius for proj-oper                               
   RAUG   =    1.300    factor for augmentation sphere                          
   RDEP   =    2.103    radius for radial grids                                 
   RDEPT  =    1.618    core radius for aug-charge                              
                                                                                
   Atomic configuration                                                         
    8 entries                                                                   
     n  l   j            E        occ.                                          
     1  0  0.50     -8206.4253   2.0000                                         
     2  0  0.50      -976.1748   2.0000                                         
     2  1  1.50      -839.0571   6.0000                                         
     3  0  0.50      -105.9991   2.0000                                         
     3  1  1.50       -66.4603   6.0000                                         
     3  2  2.50        -4.6458   9.0000                                         
     4  0  0.50        -4.4926   1.0000                                         
     4  3  2.50        -1.3606   0.0000                                         
   Description                                                                  
     l       E           TYP  RCUT    TYP  RCUT                                 
     1    -66.4602962     23  1.700                                             
     1     -1.3605826     23  1.700                                             
     2     -4.6457867     23  2.000                                             
     2     -6.0063693     23  2.000                                             
     0     -4.4925576     23  1.900                                             
     0     16.3626226     23  1.900                                             
  local pseudopotential read in
  partial core-charges read in
  partial kinetic energy density read in
  atomic valenz-charges read in
  non local Contribution for L=           1  read in
    real space projection operators read in
  non local Contribution for L=           1  read in
    real space projection operators read in
  non local Contribution for L=           2  read in
    real space projection operators read in
  non local Contribution for L=           2  read in
    real space projection operators read in
  non local Contribution for L=           0  read in
    real space projection operators read in
  non local Contribution for L=           0  read in
    real space projection operators read in
    PAW grid and wavefunctions read in
 
   number of l-projection  operators is LMAX  =           6
   number of lm-projection operators is LMMAX =          18
 
 POTCAR:    PAW_PBE O 08Apr2002                   
   VRHFIN =O: s2p4                                                              
   LEXCH  = PE                                                                  
   EATOM  =   432.3788 eV,   31.7789 Ry                                         
                                                                                
   TITEL  = PAW_PBE O 08Apr2002                                                 
   LULTRA =        F    use ultrasoft PP ?                                      
   IUNSCR =        1    unscreen: 0-lin 1-nonlin 2-no                           
   RPACOR =    1.200    partial core radius                                     
   POMASS =   16.000; ZVAL   =    6.000    mass and valenz                      
   RCORE  =    1.520    outmost cutoff radius                                   
   RWIGS  =    1.550; RWIGS  =    0.820    wigner-seitz radius (au A)           
   ENMAX  =  400.000; ENMIN  =  300.000 eV                                      
   ICORE  =        2    local potential                                         
   LCOR   =        T    correct aug charges                                     
   LPAW   =        T    paw PP                                                  
   EAUG   =  605.392                                                            
   DEXC   =    0.000                                                            
   RMAX   =    1.553    core radius for proj-oper                               
   RAUG   =    1.300    factor for augmentation sphere                          
   RDEP   =    1.550    radius for radial grids                                 
   RDEPT  =    1.329    core radius for aug-charge                              
                                                                                
   Atomic configuration                                                         
    4 entries                                                                   
     n  l   j            E        occ.                                          
     1  0  0.50      -514.6923   2.0000                                         
     2  0  0.50       -23.9615   2.0000                                         
     2  1  0.50        -9.0305   4.0000                                         
     3  2  1.50        -9.5241   0.0000                                         
   Description                                                                  
     l       E           TYP  RCUT    TYP  RCUT                                 
     0    -23.9615318     23  1.200                                             
     0     -9.5240782     23  1.200                                             
     1     -9.0304911     23  1.520                                             
     1      8.1634956     23  1.520                                             
     2     -9.5240782      7  1.500                                             
  local pseudopotential read in
  partial core-charges read in
  partial kinetic energy density read in
  kinetic energy density of atom read in
  atomic valenz-charges read in
  non local Contribution for L=           0  read in
    real space projection operators read in
  non local Contribution for L=           0  read in
    real space projection operators read in
  non local Contribution for L=           1  read in
    real space projection operators read in
  non local Contribution for L=           1  read in
    real space projection operators read in
    PAW grid and wavefunctions read in
 
   number of l-projection  operators is LMAX  =           4
   number of lm-projection operators is LMMAX =           8
 
 POTCAR:    PAW_PBE W 08Apr2002                   
   VRHFIN =W : 6s5d                                                             
   LEXCH  = PE                                                                  
   EATOM  =   204.6103 eV,   15.0384 Ry                                         
                                                                                
   TITEL  = PAW_PBE W 08Apr2002                                                 
   LULTRA =        F    use ultrasoft PP ?                                      
   IUNSCR =        1    unscreen: 0-lin 1-nonlin 2-no                           
   RPACOR =    2.330    partial core radius                                     
   POMASS =  183.850; ZVAL   =    6.000    mass and valenz                      
   RCORE  =    2.750    outmost cutoff radius                                   
   RWIGS  =    2.750; RWIGS  =    1.455    wigner-seitz radius (au A)           
   ENMAX  =  223.057; ENMIN  =  167.293 eV                                      
   RCLOC  =    2.147    cutoff for local pot                                    
   LCOR   =        T    correct aug charges                                     
   LPAW   =        T    paw PP                                                  
   EAUG   =  373.438                                                            
   DEXC   =    0.000                                                            
   RMAX   =    2.801    core radius for proj-oper                               
   RAUG   =    1.300    factor for augmentation sphere                          
   RDEP   =    2.886    radius for radial grids                                 
   RDEPT  =    2.230    core radius for aug-charge                              
                                                                                
   Atomic configuration                                                         
   16 entries                                                                   
     n  l   j            E        occ.                                          
     1  0  0.50    -69465.5836   2.0000                                         
     2  0  0.50    -11986.2642   2.0000                                         
     2  1  1.50    -10479.8616   6.0000                                         
     3  0  0.50     -2759.0758   2.0000                                         
     3  1  1.50     -2313.1857   6.0000                                         
     3  2  2.50     -1801.1185  10.0000                                         
     4  0  0.50      -567.6791   2.0000                                         
     4  1  1.50      -421.4694   6.0000                                         
     4  2  2.50      -236.3473  10.0000                                         
     4  3  3.50       -31.2666  14.0000                                         
     5  0  0.50       -77.1085   2.0000                                         
     5  1  1.50       -41.3856   6.0000                                         
     5  2  2.50        -3.3185   5.0000                                         
     6  0  0.50        -5.1438   1.0000                                         
     6  1  0.50        -3.8096   0.0000                                         
     5  3  2.50        -1.3606   0.0000                                         
   Description                                                                  
     l       E           TYP  RCUT    TYP  RCUT                                 
     2     -3.3185288     23  2.500                                             
     2     -1.5965414     23  2.500                                             
     0     -5.1438054     23  2.500                                             
     0      4.9117504     23  2.500                                             
     1      2.7211652     23  2.750                                             
     1     27.2116520     23  2.750                                             
  local pseudopotential read in
  partial core-charges read in
  partial kinetic energy density read in
  atomic valenz-charges read in
  non local Contribution for L=           2  read in
    real space projection operators read in
  non local Contribution for L=           2  read in
    real space projection operators read in
  non local Contribution for L=           0  read in
    real space projection operators read in
  non local Contribution for L=           0  read in
    real space projection operators read in
  non local Contribution for L=           1  read in
    real space projection operators read in
  non local Contribution for L=           1  read in
    real space projection operators read in
    PAW grid and wavefunctions read in
 
   number of l-projection  operators is LMAX  =           6
   number of lm-projection operators is LMMAX =          18
 
 POTCAR:    PAW_PBE Cu_pv 06Sep2000               
   VRHFIN =Cu: d10 p1                                                           
   LEXCH  = PE                                                                  
   EATOM  =  4120.1201 eV,  302.8203 Ry                                         
                                                                                
   TITEL  = PAW_PBE Cu_pv 06Sep2000                                             
   LULTRA =        F    use ultrasoft PP ?                                      
   IUNSCR =        1    unscreen: 0-lin 1-nonlin 2-no                           
   RPACOR =    1.500    partial core radius                                     
   POMASS =   63.546; ZVAL   =   17.000    mass and valenz                      
   RCORE  =    2.000    outmost cutoff radius                                   
   RWIGS  =    2.000; RWIGS  =    1.058    wigner-seitz radius (au A)           
   ENMAX  =  368.648; ENMIN  =  276.486 eV                                      
   RCLOC  =    1.304    cutoff for local pot                                    
   LCOR   =        T    correct aug charges                                     
   LPAW   =        T    paw PP                                                  
   EAUG   =  758.233                                                            
   DEXC   =    0.000                                                            
   RMAX   =    2.046    core radius for proj-oper                               
   RAUG   =    1.300    factor for augmentation sphere                          
   RDEP   =    2.025    radius for radial grids                                 
   RDEPT  =    1.558    core radius for aug-charge                              
                                                                                
   Atomic configuration                                                         
    8 entries                                                                   
     n  l   j            E        occ.                                          
     1  0  0.50     -8850.2467   2.0000                                         
     2  0  0.50     -1062.3498   2.0000                                         
     2  1  1.50      -916.8226   6.0000                                         
     3  0  0.50      -114.6929   2.0000                                         
     3  1  1.50       -72.1325   6.0000                                         
     3  2  2.50        -5.0394  10.0000                                         
     4  0  0.50        -4.6097   1.0000                                         
     4  3  2.50        -1.3606   0.0000                                         
   Description                                                                  
     l       E           TYP  RCUT    TYP  RCUT                                 
     1    -72.1324777     23  1.700                                             
     1     -1.3605826     23  1.700                                             
     2     -5.0393776     23  2.000                                             
     2     -6.3999602     23  2.000                                             
     0     -4.6097062     23  1.800                                             
     0     14.1620818     23  1.800                                             
  local pseudopotential read in
  partial core-charges read in
  partial kinetic energy density read in
  atomic valenz-charges read in
  non local Contribution for L=           1  read in
    real space projection operators read in
  non local Contribution for L=           1  read in
    real space projection operators read in
  non local Contribution for L=           2  read in
    real space projection operators read in
  non local Contribution for L=           2  read in
    real space projection operators read in
  non local Contribution for L=           0  read in
    real space projection operators read in
  non local Contribution for L=           0  read in
    real space projection operators read in
    PAW grid and wavefunctions read in
 
   number of l-projection  operators is LMAX  =           6
   number of lm-projection operators is LMMAX =          18
 
 Optimization of the real space projectors (new method)

 maximal supplied QI-value         = 18.90
 optimisation between [QCUT,QGAM] = [ 11.34, 22.87] = [ 36.00,146.41] Ry 
 Optimized for a Real-space Cutoff    1.35 Angstroem

   l    n(q)    QCUT    max X(q) W(low)/X(q) W(high)/X(q)  e(spline) 
   1      9    11.338     2.836    0.21E-04    0.44E-04    0.96E-07
   1      9    11.338     4.023    0.81E-04    0.11E-03    0.22E-06
   2      8    11.338    73.368    0.36E-03    0.40E-03    0.33E-06
   2      8    11.338    69.010    0.37E-03    0.41E-03    0.34E-06
   0      9    11.338    54.797    0.66E-04    0.74E-04    0.73E-07
   0      9    11.338    24.266    0.52E-04    0.65E-04    0.65E-07
 Optimization of the real space projectors (new method)

 maximal supplied QI-value         = 24.76
 optimisation between [QCUT,QGAM] = [ 11.39, 22.77] = [ 36.31,145.25] Ry 
 Optimized for a Real-space Cutoff    1.00 Angstroem

   l    n(q)    QCUT    max X(q) W(low)/X(q) W(high)/X(q)  e(spline) 
   0      7    11.387    20.381    0.39E-03    0.13E-02    0.15E-06
   0      7    11.387    15.268    0.42E-03    0.14E-02    0.17E-06
   1      6    11.387     5.964    0.41E-03    0.11E-02    0.17E-06
   1      6    11.387     5.382    0.39E-03    0.87E-03    0.15E-06
 Optimization of the real space projectors (new method)

 maximal supplied QI-value         = 13.61
 optimisation between [QCUT,QGAM] = [ 11.43, 22.86] = [ 36.58,146.31] Ry 
 Optimized for a Real-space Cutoff    1.56 Angstroem

   l    n(q)    QCUT    max X(q) W(low)/X(q) W(high)/X(q)  e(spline) 
   2     10    11.429   130.855    0.22E-03    0.64E-03    0.11E-05
   2     10    11.429   114.007    0.22E-03    0.64E-03    0.11E-05
   0     11    11.429    84.709    0.39E-04    0.67E-04    0.23E-06
   0     11    11.429    49.163    0.35E-04    0.62E-04    0.21E-06
   1     10    11.429    15.765    0.84E-04    0.15E-03    0.24E-06
   1     10    11.429    10.638    0.58E-04    0.12E-03    0.19E-06
 Optimization of the real space projectors (new method)

 maximal supplied QI-value         = 18.90
 optimisation between [QCUT,QGAM] = [ 11.34, 22.87] = [ 36.00,146.41] Ry 
 Optimized for a Real-space Cutoff    1.35 Angstroem

   l    n(q)    QCUT    max X(q) W(low)/X(q) W(high)/X(q)  e(spline) 
   1      9    11.338     3.172    0.27E-04    0.54E-04    0.11E-06
   1      9    11.338     4.083    0.75E-04    0.10E-03    0.21E-06
   2      8    11.338    65.342    0.34E-03    0.39E-03    0.31E-06
   2      8    11.338    61.381    0.35E-03    0.40E-03    0.31E-06
   0      9    11.338    65.742    0.63E-04    0.53E-04    0.82E-07
   0      9    11.338    30.431    0.56E-04    0.48E-04    0.75E-07
  PAW_PBE Ni_pv 06Sep2000               :
 energy of atom  1       EATOM=-3501.1230
 kinetic energy error for atom=    0.0690 (will be added to EATOM!!)
  PAW_PBE O 08Apr2002                   :
 energy of atom  2       EATOM= -432.3788
 kinetic energy error for atom=    0.0224 (will be added to EATOM!!)
  PAW_PBE W 08Apr2002                   :
 energy of atom  3       EATOM= -204.6103
 kinetic energy error for atom=    0.0017 (will be added to EATOM!!)
  PAW_PBE Cu_pv 06Sep2000               :
 energy of atom  4       EATOM=-4120.1201
 kinetic energy error for atom=    0.0655 (will be added to EATOM!!)
 
 
 POSCAR: Ni O4 Wi Cu                             
  positions in direct lattice
  No initial velocities read in
 exchange correlation table for  LEXCH =        8
   RHO(1)=    0.500       N(1)  =     2000
   RHO(2)=  100.500       N(2)  =     4000
 


--------------------------------------------------------------------------------------------------------


 ion  position               nearest neighbor table
   1  0.250  0.650  0.125-  28 2.00  37 2.00  20 2.01  12 2.01  32 2.02  24 2.03
   2  0.250  0.653  0.625-  36 1.97  29 1.97  13 2.02  21 2.02  25 2.03  33 2.03
   3  0.750  0.652  0.625-  38 1.97  31 1.97  23 2.04  15 2.04  35 2.04  27 2.05
   4  0.250  0.351  0.376-  33 2.00  24 2.00  16 2.01  36 2.01   8 2.02  28 2.03
   5  0.250  0.351  0.874-  25 2.00  32 2.00  17 2.01   9 2.02  29 2.02  37 2.02
   6  0.750  0.347  0.377-  35 1.96  26 1.97  30 2.01  10 2.02  18 2.08  38 2.08
   7  0.750  0.347  0.873-  27 1.97  34 1.97  39 2.01  19 2.02  11 2.07  31 2.08
   8  0.113  0.115  0.462-  41 1.94   4 2.02  44 2.12
   9  0.117  0.113  0.962-  40 1.95   5 2.02  45 2.11
  10  0.612  0.114  0.465-  43 1.94   6 2.02  46 2.10
  11  0.611  0.108  0.966-  42 1.94   7 2.07  47 2.09
  12  0.387  0.883  0.039-  47 1.94   1 2.01  42 2.12
  13  0.386  0.890  0.539-  46 1.95   2 2.02  43 2.09
  14  0.892  0.891  0.033-  45 1.91  48 2.04  40 2.08
  15  0.889  0.888  0.536-  44 1.94   3 2.04  41 2.10
  16  0.383  0.114  0.288-  42 1.95   4 2.01  46 2.11
  17  0.386  0.114  0.788-  43 1.94   5 2.01  47 2.12
  18  0.889  0.107  0.284-  40 1.95   6 2.08  44 2.09
  19  0.888  0.114  0.785-  41 1.95   7 2.02  45 2.10
  20  0.113  0.882  0.211-  44 1.95   1 2.01  40 2.12
  21  0.115  0.891  0.711-  45 1.95   2 2.02  41 2.09
  22  0.609  0.892  0.218-  46 1.91  48 2.05  42 2.08
  23  0.612  0.888  0.714-  47 1.94   3 2.04  43 2.10
  24  0.132  0.380  0.204-  40 1.85   4 2.00   1 2.03
  25  0.132  0.381  0.703-  41 1.84   5 2.00   2 2.03
  26  0.631  0.371  0.209-  42 1.82   6 1.97  48 2.15
  27  0.633  0.378  0.706-  43 1.85   7 1.97   3 2.05
  28  0.368  0.620  0.296-  46 1.85   1 2.00   4 2.03
  29  0.365  0.621  0.794-  47 1.86   2 1.97   5 2.02
  30  0.871  0.613  0.302-  44 1.82   6 2.01  48 2.08
  31  0.869  0.625  0.792-  45 1.84   3 1.97   7 2.08
  32  0.366  0.379  0.046-  42 1.85   5 2.00   1 2.02
  33  0.367  0.380  0.546-  43 1.84   4 2.00   2 2.03
  34  0.869  0.371  0.040-  40 1.82   7 1.97  48 2.15
  35  0.866  0.378  0.544-  41 1.85   6 1.96   3 2.04
  36  0.136  0.622  0.455-  44 1.86   2 1.97   4 2.01
  37  0.133  0.621  0.953-  45 1.85   1 2.00   5 2.02
  38  0.632  0.626  0.458-  46 1.84   3 1.97   6 2.08
  39  0.629  0.612  0.948-  47 1.82   7 2.01  48 2.08
  40  0.002  0.174  0.123-  34 1.82  24 1.85  18 1.95   9 1.95  14 2.08  20 2.12  45 3.15  44 3.18

  41  0.001  0.174  0.623-  25 1.84  35 1.85   8 1.94  19 1.95  21 2.09  15 2.10  45 3.15  44 3.16

  42  0.499  0.174  0.128-  26 1.82  32 1.85  11 1.94  16 1.95  22 2.08  12 2.12  46 3.15  47 3.18

  43  0.499  0.174  0.627-  33 1.84  27 1.85  17 1.94  10 1.94  13 2.09  23 2.10  46 3.15  47 3.16

  44  0.001  0.824  0.374-  30 1.82  36 1.86  15 1.94  20 1.95  18 2.09   8 2.12  41 3.16  40 3.18

  45  0.001  0.828  0.873-  31 1.84  37 1.85  14 1.91  21 1.95  19 2.10   9 2.11  40 3.15  41 3.15

  46  0.499  0.828  0.377-  38 1.84  28 1.85  22 1.91  13 1.95  10 2.10  16 2.11  42 3.15  43 3.15

  47  0.499  0.825  0.876-  39 1.82  29 1.86  12 1.94  23 1.94  11 2.09  17 2.12  43 3.16  42 3.18

  48  0.750  0.663  0.125-  14 2.04  22 2.05  30 2.08  39 2.08  34 2.15  26 2.15
 

IMPORTANT INFORMATION: All symmetrisations will be switched off!
NOSYMM: (Re-)initialisation of all symmetry stuff for point group C_1.

 
 
 KPOINTS: Automatic mesh                          

Automatic generation of k-mesh.
Space group operators:
 irot       det(A)        alpha          n_x          n_y          n_z        tau_x        tau_y        tau_z
    1     1.000000     0.000001     1.000000     0.000000     0.000000     0.000000     0.000000     0.000000
 
 Subroutine IBZKPT returns following result:
 ===========================================
 
 Found     68 irreducible k-points:
 
 Following reciprocal coordinates:
            Coordinates               Weight
  0.000000  0.000000  0.000000      1.000000
  0.250000 -0.000000  0.000000      2.000000
  0.500000 -0.000000  0.000000      1.000000
  0.000000  0.125000 -0.000000      2.000000
  0.250000  0.125000  0.000000      2.000000
  0.500000  0.125000  0.000000      2.000000
 -0.250000  0.125000  0.000000      2.000000
  0.000000  0.250000 -0.000000      2.000000
  0.250000  0.250000  0.000000      2.000000
  0.500000  0.250000  0.000000      2.000000
 -0.250000  0.250000  0.000000      2.000000
  0.000000  0.375000  0.000000      2.000000
  0.250000  0.375000  0.000000      2.000000
  0.500000  0.375000  0.000000      2.000000
 -0.250000  0.375000  0.000000      2.000000
  0.000000  0.500000 -0.000000      1.000000
  0.250000  0.500000 -0.000000      2.000000
  0.500000  0.500000  0.000000      1.000000
  0.000000  0.000000  0.250000      2.000000
  0.250000  0.000000  0.250000      2.000000
  0.500000 -0.000000  0.250000      2.000000
 -0.250000 -0.000000  0.250000      2.000000
  0.000000  0.125000  0.250000      2.000000
  0.250000  0.125000  0.250000      2.000000
  0.500000  0.125000  0.250000      2.000000
 -0.250000  0.125000  0.250000      2.000000
  0.000000  0.250000  0.250000      2.000000
  0.250000  0.250000  0.250000      2.000000
  0.500000  0.250000  0.250000      2.000000
 -0.250000  0.250000  0.250000      2.000000
  0.000000  0.375000  0.250000      2.000000
  0.250000  0.375000  0.250000      2.000000
  0.500000  0.375000  0.250000      2.000000
 -0.250000  0.375000  0.250000      2.000000
  0.000000  0.500000  0.250000      2.000000
  0.250000  0.500000  0.250000      2.000000
  0.500000  0.500000  0.250000      2.000000
 -0.250000  0.500000  0.250000      2.000000
 -0.000000 -0.375000  0.250000      2.000000
  0.250000 -0.375000  0.250000      2.000000
  0.500000 -0.375000  0.250000      2.000000
 -0.250000 -0.375000  0.250000      2.000000
 -0.000000 -0.250000  0.250000      2.000000
  0.250000 -0.250000  0.250000      2.000000
  0.500000 -0.250000  0.250000      2.000000
 -0.250000 -0.250000  0.250000      2.000000
  0.000000 -0.125000  0.250000      2.000000
  0.250000 -0.125000  0.250000      2.000000
  0.500000 -0.125000  0.250000      2.000000
 -0.250000 -0.125000  0.250000      2.000000
  0.000000  0.000000  0.500000      1.000000
  0.250000  0.000000  0.500000      2.000000
  0.500000  0.000000  0.500000      1.000000
 -0.000000  0.125000  0.500000      2.000000
  0.250000  0.125000  0.500000      2.000000
  0.500000  0.125000  0.500000      2.000000
 -0.250000  0.125000  0.500000      2.000000
  0.000000  0.250000  0.500000      2.000000
  0.250000  0.250000  0.500000      2.000000
  0.500000  0.250000  0.500000      2.000000
 -0.250000  0.250000  0.500000      2.000000
 -0.000000  0.375000  0.500000      2.000000
  0.250000  0.375000  0.500000      2.000000
  0.500000  0.375000  0.500000      2.000000
 -0.250000  0.375000  0.500000      2.000000
  0.000000  0.500000  0.500000      1.000000
  0.250000  0.500000  0.500000      2.000000
  0.500000  0.500000  0.500000      1.000000
 
 Following cartesian coordinates:
            Coordinates               Weight
  0.000000  0.000000  0.000000      1.000000
  0.027445 -0.000019  0.000171      2.000000
  0.054889 -0.000039  0.000341      1.000000
 -0.000016  0.022116 -0.000002      2.000000
  0.027429  0.022097  0.000168      2.000000
  0.054874  0.022078  0.000339      2.000000
 -0.027460  0.022136 -0.000173      2.000000
 -0.000031  0.044233 -0.000005      2.000000
  0.027413  0.044214  0.000166      2.000000
  0.054858  0.044194  0.000336      2.000000
 -0.027476  0.044252 -0.000175      2.000000
 -0.000047  0.066349 -0.000007      2.000000
  0.027397  0.066330  0.000163      2.000000
  0.054842  0.066311  0.000334      2.000000
 -0.027492  0.066369 -0.000178      2.000000
 -0.000063  0.088466 -0.000009      1.000000
  0.027382  0.088447  0.000161      2.000000
  0.054826  0.088427  0.000332      1.000000
  0.000129 -0.000003  0.025277      2.000000
  0.027574 -0.000022  0.025448      2.000000
  0.055018 -0.000041  0.025618      2.000000
 -0.027316  0.000017  0.025107      2.000000
  0.000113  0.022114  0.025275      2.000000
  0.027558  0.022095  0.025445      2.000000
  0.055003  0.022075  0.025616      2.000000
 -0.027332  0.022133  0.025104      2.000000
  0.000097  0.044230  0.025272      2.000000
  0.027542  0.044211  0.025443      2.000000
  0.054987  0.044192  0.025613      2.000000
 -0.027347  0.044250  0.025102      2.000000
  0.000082  0.066347  0.025270      2.000000
  0.027526  0.066328  0.025441      2.000000
  0.054971  0.066308  0.025611      2.000000
 -0.027363  0.066366  0.025099      2.000000
  0.000066  0.088463  0.025268      2.000000
  0.027511  0.088444  0.025438      2.000000
  0.054955  0.088425  0.025609      2.000000
 -0.027379  0.088483  0.025097      2.000000
  0.000176 -0.066352  0.025284      2.000000
  0.027621 -0.066371  0.025455      2.000000
  0.055066 -0.066391  0.025625      2.000000
 -0.027269 -0.066333  0.025114      2.000000
  0.000160 -0.044235  0.025282      2.000000
  0.027605 -0.044255  0.025452      2.000000
  0.055050 -0.044274  0.025623      2.000000
 -0.027284 -0.044216  0.025111      2.000000
  0.000145 -0.022119  0.025279      2.000000
  0.027589 -0.022138  0.025450      2.000000
  0.055034 -0.022158  0.025620      2.000000
 -0.027300 -0.022100  0.025109      2.000000
  0.000258 -0.000005  0.050554      1.000000
  0.027702 -0.000024  0.050725      2.000000
  0.055147 -0.000044  0.050895      1.000000
  0.000242  0.022111  0.050552      2.000000
  0.027687  0.022092  0.050722      2.000000
  0.055131  0.022073  0.050893      2.000000
 -0.027203  0.022131  0.050381      2.000000
  0.000226  0.044228  0.050549      2.000000
  0.027671  0.044209  0.050720      2.000000
  0.055116  0.044189  0.050890      2.000000
 -0.027218  0.044247  0.050379      2.000000
  0.000211  0.066344  0.050547      2.000000
  0.027655  0.066325  0.050718      2.000000
  0.055100  0.066306  0.050888      2.000000
 -0.027234  0.066364  0.050377      2.000000
  0.000195  0.088461  0.050545      1.000000
  0.027639  0.088441  0.050715      2.000000
  0.055084  0.088422  0.050886      1.000000
 
 TETIRR: Found    384 inequivalent tetrahedra from      768


--------------------------------------------------------------------------------------------------------




 Dimension of arrays:
   k-points           NKPTS =     68   k-points in BZ     NKDIM =     68   number of bands    NBANDS=    224
   number of dos      NEDOS =   2001   number of ions     NIONS =     48
   non local maximal  LDIM  =      6   non local SUM 2l+1 LMDIM =     18
   total plane-waves  NPLWV =  86400
   max r-space proj   IRMAX =   2769   max aug-charges    IRDMAX=   9883
   dimension x,y,z NGX =    50 NGY =   32 NGZ =   54
   dimension x,y,z NGXF=   100 NGYF=   64 NGZF=  108
   support grid    NGXF=   100 NGYF=   64 NGZF=  108
   ions per type =               7  32   8   1
   NGX,Y,Z   is equivalent  to a cutoff of   9.12,  9.41,  9.08 a.u.
   NGXF,Y,Z  is equivalent  to a cutoff of  18.25, 18.83, 18.15 a.u.

 SYSTEM =  NiWO4                                   
 POSCAR =  Ni O4 Wi Cu                             

 Startparameter for this run:
   NWRITE =      2    write-flag & timer
   PREC   = normal    normal or accurate (medium, high low for compatibility)
   ISTART =      0    job   : 0-new  1-cont  2-samecut
   ICHARG =      2    charge: 1-file 2-atom 10-const
   ISPIN  =      2    spin polarized calculation?
   LNONCOLLINEAR =      F non collinear calculations
   LSORBIT =      F    spin-orbit coupling
   INIWAV =      1    electr: 0-lowe 1-rand  2-diag
   LASPH  =      F    aspherical Exc in radial PAW
   METAGGA=      F    non-selfconsistent MetaGGA calc.

 Electronic Relaxation 1
   ENCUT  =  500.0 eV  36.75 Ry    6.06 a.u.  16.61 10.30 18.03*2*pi/ulx,y,z
   ENINI  =  500.0     initial cutoff
   ENAUG  =  758.2 eV  augmentation charge cutoff
   NELM   =    400;   NELMIN=  2; NELMDL= -5     # of ELM steps 
   EDIFF  = 0.1E-04   stopping-criterion for ELM
   LREAL  =      T    real-space projection
   NLSPLINE    = F    spline interpolate recip. space projectors
   LCOMPAT=      F    compatible to vasp.4.4
   GGA_COMPAT  = T    GGA compatible to vasp.4.4-vasp.4.6
   LMAXPAW     = -100 max onsite density
   LMAXMIX     =    4 max onsite mixed and CHGCAR
   VOSKOWN=      0    Vosko Wilk Nusair interpolation
   ROPT   =   -0.00050  -0.00050  -0.00050  -0.00050
 Ionic relaxation
   EDIFFG = 0.1E-03   stopping-criterion for IOM
   NSW    =      0    number of steps for IOM
   NBLOCK =      1;   KBLOCK =      1    inner block; outer block 
   IBRION =     -1    ionic relax: 0-MD 1-quasi-New 2-CG
   NFREE  =      0    steps in history (QN), initial steepest desc. (CG)
   ISIF   =      2    stress and relaxation
   IWAVPR =     10    prediction:  0-non 1-charg 2-wave 3-comb
   ISYM   =      0    0-nonsym 1-usesym 2-fastsym
   LCORR  =      T    Harris-Foulkes like correction to forces

   POTIM  = 0.5000    time-step for ionic-motion
   TEIN   =    0.0    initial temperature
   TEBEG  =    0.0;   TEEND  =   0.0 temperature during run
   SMASS  =  -3.00    Nose mass-parameter (am)
   estimated Nose-frequenzy (Omega)   =  0.10E-29 period in steps =****** mass=  -0.190E-26a.u.
   SCALEE = 1.0000    scale energy and forces
   NPACO  =    256;   APACO  = 16.0  distance and # of slots for P.C.
   PSTRESS=    0.0 pullay stress

  Mass of Ions in am
   POMASS =  58.69 16.00183.85 63.55
  Ionic Valenz
   ZVAL   =  16.00  6.00  6.00 17.00
  Atomic Wigner-Seitz radii
   RWIGS  =  -1.00 -1.00 -1.00 -1.00
  virtual crystal weights 
   VCA    =   1.00  1.00  1.00  1.00
   NELECT =     369.0000    total number of electrons
   NUPDOWN=      -1.0000    fix difference up-down

 DOS related values:
   EMIN   =  10.00;   EMAX   =-10.00  energy-range for DOS
   EFERMI =   0.00
   ISMEAR =    -5;   SIGMA  =   0.10  broadening in eV -4-tet -1-fermi 0-gaus

 Electronic relaxation 2 (details)
   IALGO  =     38    algorithm
   LDIAG  =      T    sub-space diagonalisation (order eigenvalues)
   LSUBROT=      F    optimize rotation matrix (better conditioning)
   TURBO    =      0    0=normal 1=particle mesh
   IRESTART =      0    0=no restart 2=restart with 2 vectors
   NREBOOT  =      0    no. of reboots
   NMIN     =      0    reboot dimension
   EREF     =   0.00    reference energy to select bands
   IMIX   =      4    mixing-type and parameters
     AMIX     =   0.20;   BMIX     =  0.00
     AMIX_MAG =   0.05;   BMIX_MAG =  0.00
     AMIN     =   0.05
     WC   =   100.;   INIMIX=   1;  MIXPRE=   1;  MAXMIX= -45

 Intra band minimization:
   WEIMIN = 0.0000     energy-eigenvalue tresh-hold
   EBREAK =  0.11E-07  absolut break condition
   DEPER  =   0.30     relativ break condition  

   TIME   =   0.40     timestep for ELM

  volume/ion in A,a.u.               =      10.61        71.59
  Fermi-wavevector in a.u.,A,eV,Ry     =   1.470446  2.778741 29.418691  2.162213
  Thomas-Fermi vector in A             =   2.585702
 
 Write flags
   LWAVE        =      T    write WAVECAR
   LDOWNSAMPLE  =      F    k-point downsampling of WAVECAR
   LCHARG       =      T    write CHGCAR
   LVTOT        =      F    write LOCPOT, total local potential
   LVHAR        =      F    write LOCPOT, Hartree potential only
   LELF         =      F    write electronic localiz. function (ELF)
   LORBIT       =     11    0 simple, 1 ext, 2 COOP (PROOUT), +10 PAW based schemes


 Dipole corrections
   LMONO  =      F    monopole corrections only (constant potential shift)
   LDIPOL =      F    correct potential (dipole corrections)
   IDIPOL =      0    1-x, 2-y, 3-z, 4-all directions 
   EPSILON=  1.0000000 bulk dielectric constant

 LDA+U is selected, type is set to LDAUTYPE =  2
   angular momentum for each species LDAUL =     2   -1   -1    2
   U (eV)           for each species LDAUU =   6.0  0.0  0.0  4.0
   J (eV)           for each species LDAUJ =   0.0  0.0  0.0  0.0
 Exchange correlation treatment:
   GGA     =    PE    GGA type
   LEXCH   =     8    internal setting for exchange type
   VOSKOWN=      0    Vosko Wilk Nusair interpolation
   LHFCALC =     F    Hartree Fock is set to
   LHFONE  =     F    Hartree Fock one center treatment
   AEXX    =    0.0000 exact exchange contribution

 Linear response parameters
   LEPSILON=     F    determine dielectric tensor
   LRPA    =     F    only Hartree local field effects (RPA)
   LNABLA  =     F    use nabla operator in PAW spheres
   LVEL    =     F    velocity operator in full k-point grid
   LINTERFAST=   F  fast interpolation
   KINTER  =     0    interpolate to denser k-point grid
   CSHIFT  =0.1000    complex shift for real part using Kramers Kronig
   OMEGAMAX=  -1.0    maximum frequency
   DEG_THRESHOLD= 0.2000000E-02 threshold for treating states as degnerate
   RTIME   =   -0.100 relaxation time in fs
  (WPLASMAI=    0.000 imaginary part of plasma frequency in eV, 0.658/RTIME)
   DFIELD  = 0.0000000 0.0000000 0.0000000 field for delta impulse in time
 
 Orbital magnetization related:
   ORBITALMAG=     F  switch on orbital magnetization
   LCHIMAG   =     F  perturbation theory with respect to B field
   DQ        =  0.001000  dq finite difference perturbation B field
   LLRAUG    =     F  two centre corrections for induced B field



--------------------------------------------------------------------------------------------------------


 Static calculation
 charge density and potential will be updated during run
 spin polarized calculation
 Variant of blocked Davidson
 Davidson routine will perform the subspace rotation
 perform sub-space diagonalisation
    after iterative eigenvector-optimisation
 modified Broyden-mixing scheme, WC =      100.0
 initial mixing is a Kerker type mixing with AMIX =  0.2000 and BMIX =      0.0001
 Hartree-type preconditioning will be used
 using additional bands           39
 real space projection scheme for non local part
 use partial core corrections
 calculate Harris-corrections to forces 
   (improved forces if not selfconsistent)
 use gradient corrections 
 use of overlap-Matrix (Vanderbilt PP)
 Fermi weights with tetrahedron method with Bloechl corrections


--------------------------------------------------------------------------------------------------------


  energy-cutoff  :      500.00
  volume of cell :      509.22
      direct lattice vectors                 reciprocal lattice vectors
     9.109515956  0.006478648 -0.046442580     0.109778850 -0.000077333  0.000682142
     0.003978019  5.651900078  0.000549527    -0.000125929  0.176931739 -0.000018784
    -0.061458039  0.001006298  9.890708564     0.000515482 -0.000010193  0.101108195

  length of vectors
     9.109636647  5.651901505  9.890899555     0.109780996  0.176931785  0.101109510


 
 k-points in units of 2pi/SCALE and weight: Automatic mesh                          
   0.00000000  0.00000000  0.00000000       0.008
   0.02744471 -0.00001933  0.00017054       0.016
   0.05488942 -0.00003867  0.00034107       0.008
  -0.00001574  0.02211647 -0.00000235       0.016
   0.02742897  0.02209713  0.00016819       0.016
   0.05487368  0.02207780  0.00033872       0.016
  -0.02746045  0.02213580 -0.00017288       0.016
  -0.00003148  0.04423293 -0.00000470       0.016
   0.02741323  0.04421360  0.00016584       0.016
   0.05485794  0.04419427  0.00033638       0.016
  -0.02747619  0.04425227 -0.00017523       0.016
  -0.00004722  0.06634940 -0.00000704       0.016
   0.02739749  0.06633007  0.00016349       0.016
   0.05484220  0.06631074  0.00033403       0.016
  -0.02749194  0.06636874 -0.00017758       0.016
  -0.00006296  0.08846587 -0.00000939       0.008
   0.02738175  0.08844654  0.00016114       0.016
   0.05482646  0.08842720  0.00033168       0.008
   0.00012887 -0.00000255  0.02527705       0.016
   0.02757358 -0.00002188  0.02544758       0.016
   0.05501830 -0.00004121  0.02561812       0.016
  -0.02731584  0.00001678  0.02510651       0.016
   0.00011313  0.02211392  0.02527470       0.016
   0.02755784  0.02209459  0.02544524       0.016
   0.05500255  0.02207525  0.02561577       0.016
  -0.02733158  0.02213325  0.02510417       0.016
   0.00009739  0.04423039  0.02527235       0.016
   0.02754210  0.04421105  0.02544289       0.016
   0.05498681  0.04419172  0.02561342       0.016
  -0.02734732  0.04424972  0.02510182       0.016
   0.00008165  0.06634685  0.02527000       0.016
   0.02752636  0.06632752  0.02544054       0.016
   0.05497107  0.06630819  0.02561108       0.016
  -0.02736307  0.06636619  0.02509947       0.016
   0.00006591  0.08846332  0.02526766       0.016
   0.02751062  0.08844399  0.02543819       0.016
   0.05495533  0.08842465  0.02560873       0.016
  -0.02737881  0.08848265  0.02509712       0.016
   0.00017609 -0.06635195  0.02528409       0.016
   0.02762081 -0.06637128  0.02545463       0.016
   0.05506552 -0.06639062  0.02562516       0.016
  -0.02726862 -0.06633262  0.02511356       0.016
   0.00016035 -0.04423548  0.02528174       0.016
   0.02760507 -0.04425482  0.02545228       0.016
   0.05504978 -0.04427415  0.02562282       0.016
  -0.02728436 -0.04421615  0.02511121       0.016
   0.00014461 -0.02211902  0.02527940       0.016
   0.02758932 -0.02213835  0.02544993       0.016
   0.05503404 -0.02215768  0.02562047       0.016
  -0.02730010 -0.02209968  0.02510886       0.016
   0.00025774 -0.00000510  0.05055410       0.008
   0.02770245 -0.00002443  0.05072463       0.016
   0.05514717 -0.00004376  0.05089517       0.008
   0.00024200  0.02211137  0.05055175       0.016
   0.02768671  0.02209204  0.05072229       0.016
   0.05513142  0.02207270  0.05089282       0.016
  -0.02720271  0.02213070  0.05038121       0.016
   0.00022626  0.04422784  0.05054940       0.016
   0.02767097  0.04420850  0.05071994       0.016
   0.05511568  0.04418917  0.05089047       0.016
  -0.02721845  0.04424717  0.05037887       0.016
   0.00021052  0.06634431  0.05054705       0.016
   0.02765523  0.06632497  0.05071759       0.016
   0.05509994  0.06630564  0.05088812       0.016
  -0.02723419  0.06636364  0.05037652       0.016
   0.00019478  0.08846077  0.05054471       0.008
   0.02763949  0.08844144  0.05071524       0.016
   0.05508420  0.08842211  0.05088578       0.008
 
 k-points in reciprocal lattice and weights: Automatic mesh                          
   0.00000000  0.00000000  0.00000000       0.008
   0.25000000 -0.00000000  0.00000000       0.016
   0.50000000 -0.00000000  0.00000000       0.008
   0.00000000  0.12500000 -0.00000000       0.016
   0.25000000  0.12500000  0.00000000       0.016
   0.50000000  0.12500000  0.00000000       0.016
  -0.25000000  0.12500000  0.00000000       0.016
   0.00000000  0.25000000 -0.00000000       0.016
   0.25000000  0.25000000  0.00000000       0.016
   0.50000000  0.25000000  0.00000000       0.016
  -0.25000000  0.25000000  0.00000000       0.016
   0.00000000  0.37500000  0.00000000       0.016
   0.25000000  0.37500000  0.00000000       0.016
   0.50000000  0.37500000  0.00000000       0.016
  -0.25000000  0.37500000  0.00000000       0.016
   0.00000000  0.50000000 -0.00000000       0.008
   0.25000000  0.50000000 -0.00000000       0.016
   0.50000000  0.50000000  0.00000000       0.008
   0.00000000  0.00000000  0.25000000       0.016
   0.25000000  0.00000000  0.25000000       0.016
   0.50000000 -0.00000000  0.25000000       0.016
  -0.25000000 -0.00000000  0.25000000       0.016
   0.00000000  0.12500000  0.25000000       0.016
   0.25000000  0.12500000  0.25000000       0.016
   0.50000000  0.12500000  0.25000000       0.016
  -0.25000000  0.12500000  0.25000000       0.016
   0.00000000  0.25000000  0.25000000       0.016
   0.25000000  0.25000000  0.25000000       0.016
   0.50000000  0.25000000  0.25000000       0.016
  -0.25000000  0.25000000  0.25000000       0.016
   0.00000000  0.37500000  0.25000000       0.016
   0.25000000  0.37500000  0.25000000       0.016
   0.50000000  0.37500000  0.25000000       0.016
  -0.25000000  0.37500000  0.25000000       0.016
   0.00000000  0.50000000  0.25000000       0.016
   0.25000000  0.50000000  0.25000000       0.016
   0.50000000  0.50000000  0.25000000       0.016
  -0.25000000  0.50000000  0.25000000       0.016
  -0.00000000 -0.37500000  0.25000000       0.016
   0.25000000 -0.37500000  0.25000000       0.016
   0.50000000 -0.37500000  0.25000000       0.016
  -0.25000000 -0.37500000  0.25000000       0.016
  -0.00000000 -0.25000000  0.25000000       0.016
   0.25000000 -0.25000000  0.25000000       0.016
   0.50000000 -0.25000000  0.25000000       0.016
  -0.25000000 -0.25000000  0.25000000       0.016
   0.00000000 -0.12500000  0.25000000       0.016
   0.25000000 -0.12500000  0.25000000       0.016
   0.50000000 -0.12500000  0.25000000       0.016
  -0.25000000 -0.12500000  0.25000000       0.016
   0.00000000  0.00000000  0.50000000       0.008
   0.25000000  0.00000000  0.50000000       0.016
   0.50000000  0.00000000  0.50000000       0.008
  -0.00000000  0.12500000  0.50000000       0.016
   0.25000000  0.12500000  0.50000000       0.016
   0.50000000  0.12500000  0.50000000       0.016
  -0.25000000  0.12500000  0.50000000       0.016
   0.00000000  0.25000000  0.50000000       0.016
   0.25000000  0.25000000  0.50000000       0.016
   0.50000000  0.25000000  0.50000000       0.016
  -0.25000000  0.25000000  0.50000000       0.016
  -0.00000000  0.37500000  0.50000000       0.016
   0.25000000  0.37500000  0.50000000       0.016
   0.50000000  0.37500000  0.50000000       0.016
  -0.25000000  0.37500000  0.50000000       0.016
   0.00000000  0.50000000  0.50000000       0.008
   0.25000000  0.50000000  0.50000000       0.016
   0.50000000  0.50000000  0.50000000       0.008
 
 position of ions in fractional coordinates (direct lattice) 
   0.25015977  0.65027593  0.12504462
   0.25000527  0.65266491  0.62494861
   0.75010031  0.65230596  0.62516401
   0.24958036  0.35121094  0.37551331
   0.25031045  0.35128101  0.87408300
   0.74955847  0.34653517  0.37662977
   0.75026214  0.34665410  0.87312480
   0.11327519  0.11466632  0.46192296
   0.11722232  0.11273822  0.96176286
   0.61182143  0.11442689  0.46452074
   0.61067864  0.10816790  0.96563224
   0.38742749  0.88319289  0.03874249
   0.38551081  0.89048267  0.53887328
   0.89163705  0.89094988  0.03303394
   0.88853495  0.88813663  0.53609767
   0.38251334  0.11355975  0.28844596
   0.38571545  0.11443261  0.78803416
   0.88894271  0.10692629  0.28409777
   0.88756796  0.11428316  0.78541961
   0.11340331  0.88246940  0.21144053
   0.11467488  0.89141824  0.71097852
   0.60908830  0.89195785  0.21821140
   0.61212477  0.88811229  0.71430568
   0.13247143  0.38033389  0.20414016
   0.13199702  0.38148736  0.70318733
   0.63098962  0.37082488  0.20924601
   0.63296178  0.37773649  0.70559613
   0.36802466  0.62026378  0.29637522
   0.36532288  0.62118309  0.79409346
   0.87071576  0.61292572  0.30210765
   0.86878958  0.62541490  0.79227088
   0.36628080  0.37930177  0.04644427
   0.36679947  0.37979569  0.54646389
   0.86920087  0.37099577  0.04048058
   0.86583902  0.37777599  0.54408345
   0.13605786  0.62181111  0.45537201
   0.13347268  0.62079978  0.95303622
   0.63173020  0.62564460  0.45814389
   0.62940339  0.61245833  0.94772183
   0.00151498  0.17365606  0.12255890
   0.00094335  0.17449578  0.62331202
   0.49865094  0.17373708  0.12757558
   0.49888462  0.17400728  0.62666515
   0.00070709  0.82437533  0.37401714
   0.00144532  0.82830642  0.87317092
   0.49850802  0.82802326  0.37701224
   0.49920330  0.82452583  0.87589666
   0.74997585  0.66327461  0.12500045
 
 position of ions in cartesian coordinates  (Angst):
   2.27373627  3.67704113  1.22551920
   2.24161522  3.69104544  6.16993238
   6.79722423  3.69225686  6.14883691
   2.25187510  1.98700396  3.70269453
   2.22788501  1.98790645  8.63386821
   6.80634646  1.96381730  3.69051426
   6.78224336  1.96499365  8.60116931
   1.00394941  0.64928127  4.56354763
   1.00917904  0.63891240  9.50713399
   5.54530374  0.65116056  4.56608758
   5.50407124  0.61628224  9.52248503
   3.53040918  4.99426698  0.36568287
   3.48224115  5.03595892  5.31242384
   8.12389591  5.04136954  0.28580872
   8.06470884  5.02595548  5.26160800
   3.46723581  0.64459676  2.83523246
   3.46570523  0.65005361  7.77636552
   8.08080303  0.61038173  2.76870221
   8.03749879  0.65245762  7.72719830
   1.02356499  4.98857632  2.08651486
   1.00448337  5.03966520  7.02724543
   5.53863701  5.04542229  2.13046793
   5.53579342  5.02420648  7.03704868
   1.19571755  2.15067282  2.01314751
   1.16072998  2.15769123  6.94910033
   5.73662533  2.10016371  2.04049033
   5.72411349  2.13973969  6.94965692
   3.33677926  3.50835142  2.91460980
   3.28158229  3.51403065  7.83752183
   7.91567040  3.47014002  2.94795726
   7.86804904  3.54120835  7.79611523
   3.33529526  2.14619545  0.44256412
   3.30929181  2.14949358  5.38808864
   7.91698715  2.10250303  0.36021761
   7.85543886  2.14130912  5.34136664
   1.21390859  3.51575395  4.49797463
   1.15976931  3.51052211  9.42034582
   5.72908853  3.54063457  4.50237228
   5.67775146  3.46658467  9.34474585
   0.00695934  0.98161984  1.21221941
  -0.02901995  0.98686604  6.16504966
   4.53531928  0.98530359  1.23874972
   4.50677597  0.98733444  6.17508852
  -0.01326572  4.65966793  3.69971474
  -0.03720215  4.68239313  8.63666718
   4.52129025  4.68351377  3.70622117
   4.49694953  4.66425320  8.64050744
   6.82687323  3.75374642  1.20187670
 


--------------------------------------------------------------------------------------------------------


 k-point  1 :   0.0000 0.0000 0.0000  plane waves:   12949
 k-point  2 :   0.2500-0.0000 0.0000  plane waves:   12959
 k-point  3 :   0.5000-0.0000 0.0000  plane waves:   12908
 k-point  4 :   0.0000 0.1250-0.0000  plane waves:   12949
 k-point  5 :   0.2500 0.1250 0.0000  plane waves:   12921
 k-point  6 :   0.5000 0.1250 0.0000  plane waves:   12915
 k-point  7 :  -0.2500 0.1250 0.0000  plane waves:   12920
 k-point  8 :   0.0000 0.2500-0.0000  plane waves:   12900
 k-point  9 :   0.2500 0.2500 0.0000  plane waves:   12904
 k-point 10 :   0.5000 0.2500 0.0000  plane waves:   12902
 k-point 11 :  -0.2500 0.2500 0.0000  plane waves:   12909
 k-point 12 :   0.0000 0.3750 0.0000  plane waves:   12932
 k-point 13 :   0.2500 0.3750 0.0000  plane waves:   12922
 k-point 14 :   0.5000 0.3750 0.0000  plane waves:   12923
 k-point 15 :  -0.2500 0.3750 0.0000  plane waves:   12923
 k-point 16 :   0.0000 0.5000-0.0000  plane waves:   12896
 k-point 17 :   0.2500 0.5000-0.0000  plane waves:   12919
 k-point 18 :   0.5000 0.5000 0.0000  plane waves:   12912
 k-point 19 :   0.0000 0.0000 0.2500  plane waves:   12948
 k-point 20 :   0.2500 0.0000 0.2500  plane waves:   12932
 k-point 21 :   0.5000-0.0000 0.2500  plane waves:   12919
 k-point 22 :  -0.2500-0.0000 0.2500  plane waves:   12943
 k-point 23 :   0.0000 0.1250 0.2500  plane waves:   12946
 k-point 24 :   0.2500 0.1250 0.2500  plane waves:   12930
 k-point 25 :   0.5000 0.1250 0.2500  plane waves:   12929
 k-point 26 :  -0.2500 0.1250 0.2500  plane waves:   12930
 k-point 27 :   0.0000 0.2500 0.2500  plane waves:   12940
 k-point 28 :   0.2500 0.2500 0.2500  plane waves:   12929
 k-point 29 :   0.5000 0.2500 0.2500  plane waves:   12931
 k-point 30 :  -0.2500 0.2500 0.2500  plane waves:   12933
 k-point 31 :   0.0000 0.3750 0.2500  plane waves:   12925
 k-point 32 :   0.2500 0.3750 0.2500  plane waves:   12931
 k-point 33 :   0.5000 0.3750 0.2500  plane waves:   12945
 k-point 34 :  -0.2500 0.3750 0.2500  plane waves:   12927
 k-point 35 :   0.0000 0.5000 0.2500  plane waves:   12920
 k-point 36 :   0.2500 0.5000 0.2500  plane waves:   12939
 k-point 37 :   0.5000 0.5000 0.2500  plane waves:   12913
 k-point 38 :  -0.2500 0.5000 0.2500  plane waves:   12934
 k-point 39 :  -0.0000-0.3750 0.2500  plane waves:   12929
 k-point 40 :   0.2500-0.3750 0.2500  plane waves:   12929
 k-point 41 :   0.5000-0.3750 0.2500  plane waves:   12941
 k-point 42 :  -0.2500-0.3750 0.2500  plane waves:   12934
 k-point 43 :  -0.0000-0.2500 0.2500  plane waves:   12936
 k-point 44 :   0.2500-0.2500 0.2500  plane waves:   12927
 k-point 45 :   0.5000-0.2500 0.2500  plane waves:   12929
 k-point 46 :  -0.2500-0.2500 0.2500  plane waves:   12933
 k-point 47 :   0.0000-0.1250 0.2500  plane waves:   12939
 k-point 48 :   0.2500-0.1250 0.2500  plane waves:   12932
 k-point 49 :   0.5000-0.1250 0.2500  plane waves:   12926
 k-point 50 :  -0.2500-0.1250 0.2500  plane waves:   12927
 k-point 51 :   0.0000 0.0000 0.5000  plane waves:   12962
 k-point 52 :   0.2500 0.0000 0.5000  plane waves:   12938
 k-point 53 :   0.5000 0.0000 0.5000  plane waves:   12926
 k-point 54 :  -0.0000 0.1250 0.5000  plane waves:   12938
 k-point 55 :   0.2500 0.1250 0.5000  plane waves:   12936
 k-point 56 :   0.5000 0.1250 0.5000  plane waves:   12935
 k-point 57 :  -0.2500 0.1250 0.5000  plane waves:   12942
 k-point 58 :   0.0000 0.2500 0.5000  plane waves:   12928
 k-point 59 :   0.2500 0.2500 0.5000  plane waves:   12935
 k-point 60 :   0.5000 0.2500 0.5000  plane waves:   12951
 k-point 61 :  -0.2500 0.2500 0.5000  plane waves:   12932
 k-point 62 :  -0.0000 0.3750 0.5000  plane waves:   12923
 k-point 63 :   0.2500 0.3750 0.5000  plane waves:   12921
 k-point 64 :   0.5000 0.3750 0.5000  plane waves:   12942
 k-point 65 :  -0.2500 0.3750 0.5000  plane waves:   12918
 k-point 66 :   0.0000 0.5000 0.5000  plane waves:   12948
 k-point 67 :   0.2500 0.5000 0.5000  plane waves:   12931
 k-point 68 :   0.5000 0.5000 0.5000  plane waves:   12888

 maximum and minimum number of plane-waves per node :      3284     3199

 maximum number of plane-waves:     12962
 maximum index in each direction: 
   IXMAX=   16   IYMAX=   10   IZMAX=   18
   IXMIN=  -17   IYMIN=  -10   IZMIN=  -18


 real space projection operators:
  total allocation   :       6275.06 KBytes
  max/ min on nodes  :       1632.89       1502.69


 parallel 3D FFT for wavefunctions:
    minimum data exchange during FFTs selected (reduces bandwidth)
 parallel 3D FFT for charge:
    minimum data exchange during FFTs selected (reduces bandwidth)


 total amount of memory used by VASP MPI-rank0   246404. kBytes
=======================================================================

   base      :      30000. kBytes
   nonlr-proj:       4247. kBytes
   fftplans  :       1587. kBytes
   grid      :       4505. kBytes
   one-center:        373. kBytes
   wavefun   :     205692. kBytes
 
     INWAV:  cpu time    0.0000: real time    0.0002
 Broyden mixing: mesh for mixing (old mesh)
   NGX = 33   NGY = 21   NGZ = 37
  (NGX  =100   NGY  = 64   NGZ  =108)
  gives a total of  25641 points

 initial charge density was supplied:
 charge density of overlapping atoms calculated
 number of electron     369.0000000 magnetization       1.0000000
 keeping initial charge density in first step


--------------------------------------------------------------------------------------------------------


 Maximum index for non-local projection operator          780
 Maximum index for augmentation-charges         1034 (set IRDMAX)


--------------------------------------------------------------------------------------------------------


 First call to EWALD:  gamma=   0.222
 Maximum number of real-space cells 2x 4x 2
 Maximum number of reciprocal cells 3x 2x 3

    FEWALD:  cpu time    0.0019: real time    0.0028


--------------------------------------- Iteration      1(   1)  ---------------------------------------


    POTLOK:  cpu time    0.0333: real time    0.0343
    SETDIJ:  cpu time    0.0095: real time    0.0096
atom =   1  type =  1  l = 2
 
 onsite density matrix
 
spin component  1
 
  0.7184  0.0000  0.0000  0.0000  0.0000
  0.0000  0.7184  0.0000  0.0000  0.0000
  0.0000  0.0000  0.7184  0.0000  0.0000
  0.0000  0.0000  0.0000  0.7184  0.0000
  0.0000  0.0000  0.0000  0.0000  0.7184
 
spin component  2
 
  0.9237  0.0000  0.0000  0.0000  0.0000
  0.0000  0.9237  0.0000  0.0000  0.0000
  0.0000  0.0000  0.9237  0.0000  0.0000
  0.0000  0.0000  0.0000  0.9237  0.0000
  0.0000  0.0000  0.0000  0.0000  0.9237
 
 occupancies and eigenvectors
 
  o =  0.7184  v =  1.0000  0.0000  0.0000  0.0000  0.0000  0.0000  0.0000  0.0000  0.0000  0.0000      0.0000  0.0000  0.0000  0.0000  0.0000  0.0000  0.0000  0.0000  0.0000  0.0000
  o =  0.7184  v =  0.0000  1.0000  0.0000  0.0000  0.0000  0.0000  0.0000  0.0000  0.0000  0.0000      0.0000  0.0000  0.0000  0.0000  0.0000  0.0000  0.0000  0.0000  0.0000  0.0000
  o =  0.7184  v =  0.0000  0.0000  1.0000  0.0000  0.0000  0.0000  0.0000  0.0000  0.0000  0.0000      0.0000  0.0000  0.0000  0.0000  0.0000  0.0000  0.0000  0.0000  0.0000  0.0000
  o =  0.7184  v =  0.0000  0.0000  0.0000  1.0000  0.0000  0.0000  0.0000  0.0000  0.0000  0.0000      0.0000  0.0000  0.0000  0.0000  0.0000  0.0000  0.0000  0.0000  0.0000  0.0000
  o =  0.7184  v =  0.0000  0.0000  0.0000  0.0000  1.0000  0.0000  0.0000  0.0000  0.0000  0.0000      0.0000  0.0000  0.0000  0.0000  0.0000  0.0000  0.0000  0.0000  0.0000  0.0000
  o =  0.9237  v =  0.0000  0.0000  0.0000  0.0000  0.0000  1.0000  0.0000  0.0000  0.0000  0.0000      0.0000  0.0000  0.0000  0.0000  0.0000  0.0000  0.0000  0.0000  0.0000  0.0000
  o =  0.9237  v =  0.0000  0.0000  0.0000  0.0000  0.0000  0.0000  1.0000  0.0000  0.0000  0.0000      0.0000  0.0000  0.0000  0.0000  0.0000  0.0000  0.0000  0.0000  0.0000  0.0000
  o =  0.9237  v =  0.0000  0.0000  0.0000  0.0000  0.0000  0.0000  0.0000  1.0000  0.0000  0.0000      0.0000  0.0000  0.0000  0.0000  0.0000  0.0000  0.0000  0.0000  0.0000  0.0000
  o =  0.9237  v =  0.0000  0.0000  0.0000  0.0000  0.0000  0.0000  0.0000  0.0000  1.0000  0.0000      0.0000  0.0000  0.0000  0.0000  0.0000  0.0000  0.0000  0.0000  0.0000  0.0000
  o =  0.9237  v =  0.0000  0.0000  0.0000  0.0000  0.0000  0.0000  0.0000  0.0000  0.0000  1.0000      0.0000  0.0000  0.0000  0.0000  0.0000  0.0000  0.0000  0.0000  0.0000  0.0000
atom =   2  type =  1  l = 2
 
 onsite density matrix
 
spin component  1
 
  0.7184  0.0000  0.0000  0.0000  0.0000
  0.0000  0.7184  0.0000  0.0000  0.0000
  0.0000  0.0000  0.7184  0.0000  0.0000
  0.0000  0.0000  0.0000  0.7184  0.0000
  0.0000  0.0000  0.0000  0.0000  0.7184
 
spin component  2
 
  0.9237  0.0000  0.0000  0.0000  0.0000
  0.0000  0.9237  0.0000  0.0000  0.0000
  0.0000  0.0000  0.9237  0.0000  0.0000
  0.0000  0.0000  0.0000  0.9237  0.0000
  0.0000  0.0000  0.0000  0.0000  0.9237
 
 occupancies and eigenvectors
 
  o =  0.7184  v =  1.0000  0.0000  0.0000  0.0000  0.0000  0.0000  0.0000  0.0000  0.0000  0.0000      0.0000  0.0000  0.0000  0.0000  0.0000  0.0000  0.0000  0.0000  0.0000  0.0000
  o =  0.7184  v =  0.0000  1.0000  0.0000  0.0000  0.0000  0.0000  0.0000  0.0000  0.0000  0.0000      0.0000  0.0000  0.0000  0.0000  0.0000  0.0000  0.0000  0.0000  0.0000  0.0000
  o =  0.7184  v =  0.0000  0.0000  1.0000  0.0000  0.0000  0.0000  0.0000  0.0000  0.0000  0.0000      0.0000  0.0000  0.0000  0.0000  0.0000  0.0000  0.0000  0.0000  0.0000  0.0000
  o =  0.7184  v =  0.0000  0.0000  0.0000  1.0000  0.0000  0.0000  0.0000  0.0000  0.0000  0.0000      0.0000  0.0000  0.0000  0.0000  0.0000  0.0000  0.0000  0.0000  0.0000  0.0000
  o =  0.7184  v =  0.0000  0.0000  0.0000  0.0000  1.0000  0.0000  0.0000  0.0000  0.0000  0.0000      0.0000  0.0000  0.0000  0.0000  0.0000  0.0000  0.0000  0.0000  0.0000  0.0000
  o =  0.9237  v =  0.0000  0.0000  0.0000  0.0000  0.0000  1.0000  0.0000  0.0000  0.0000  0.0000      0.0000  0.0000  0.0000  0.0000  0.0000  0.0000  0.0000  0.0000  0.0000  0.0000
  o =  0.9237  v =  0.0000  0.0000  0.0000  0.0000  0.0000  0.0000  1.0000  0.0000  0.0000  0.0000      0.0000  0.0000  0.0000  0.0000  0.0000  0.0000  0.0000  0.0000  0.0000  0.0000
  o =  0.9237  v =  0.0000  0.0000  0.0000  0.0000  0.0000  0.0000  0.0000  1.0000  0.0000  0.0000      0.0000  0.0000  0.0000  0.0000  0.0000  0.0000  0.0000  0.0000  0.0000  0.0000
  o =  0.9237  v =  0.0000  0.0000  0.0000  0.0000  0.0000  0.0000  0.0000  0.0000  1.0000  0.0000      0.0000  0.0000  0.0000  0.0000  0.0000  0.0000  0.0000  0.0000  0.0000  0.0000
  o =  0.9237  v =  0.0000  0.0000  0.0000  0.0000  0.0000  0.0000  0.0000  0.0000  0.0000  1.0000      0.0000  0.0000  0.0000  0.0000  0.0000  0.0000  0.0000  0.0000  0.0000  0.0000
atom =   3  type =  1  l = 2
 
 onsite density matrix
 
spin component  1
 
  0.9237  0.0000  0.0000  0.0000  0.0000
  0.0000  0.9237  0.0000  0.0000  0.0000
  0.0000  0.0000  0.9237  0.0000  0.0000
  0.0000  0.0000  0.0000  0.9237  0.0000
  0.0000  0.0000  0.0000  0.0000  0.9237
 
spin component  2
 
  0.7184  0.0000  0.0000  0.0000  0.0000
  0.0000  0.7184  0.0000  0.0000  0.0000
  0.0000  0.0000  0.7184  0.0000  0.0000
  0.0000  0.0000  0.0000  0.7184  0.0000
  0.0000  0.0000  0.0000  0.0000  0.7184
 
 occupancies and eigenvectors
 
  o =  0.7184  v =  0.0000  0.0000  0.0000  0.0000  0.0000  1.0000  0.0000  0.0000  0.0000  0.0000      0.0000  0.0000  0.0000  0.0000  0.0000  0.0000  0.0000  0.0000  0.0000  0.0000
  o =  0.7184  v =  0.0000  0.0000  0.0000  0.0000  0.0000  0.0000  1.0000  0.0000  0.0000  0.0000      0.0000  0.0000  0.0000  0.0000  0.0000  0.0000  0.0000  0.0000  0.0000  0.0000
  o =  0.7184  v =  0.0000  0.0000  0.0000  0.0000  0.0000  0.0000  0.0000  1.0000  0.0000  0.0000      0.0000  0.0000  0.0000  0.0000  0.0000  0.0000  0.0000  0.0000  0.0000  0.0000
  o =  0.7184  v =  0.0000  0.0000  0.0000  0.0000  0.0000  0.0000  0.0000  0.0000  1.0000  0.0000      0.0000  0.0000  0.0000  0.0000  0.0000  0.0000  0.0000  0.0000  0.0000  0.0000
  o =  0.7184  v =  0.0000  0.0000  0.0000  0.0000  0.0000  0.0000  0.0000  0.0000  0.0000  1.0000      0.0000  0.0000  0.0000  0.0000  0.0000  0.0000  0.0000  0.0000  0.0000  0.0000
  o =  0.9237  v =  1.0000  0.0000  0.0000  0.0000  0.0000  0.0000  0.0000  0.0000  0.0000  0.0000      0.0000  0.0000  0.0000  0.0000  0.0000  0.0000  0.0000  0.0000  0.0000  0.0000
  o =  0.9237  v =  0.0000  1.0000  0.0000  0.0000  0.0000  0.0000  0.0000  0.0000  0.0000  0.0000      0.0000  0.0000  0.0000  0.0000  0.0000  0.0000  0.0000  0.0000  0.0000  0.0000
  o =  0.9237  v =  0.0000  0.0000  1.0000  0.0000  0.0000  0.0000  0.0000  0.0000  0.0000  0.0000      0.0000  0.0000  0.0000  0.0000  0.0000  0.0000  0.0000  0.0000  0.0000  0.0000
  o =  0.9237  v =  0.0000  0.0000  0.0000  1.0000  0.0000  0.0000  0.0000  0.0000  0.0000  0.0000      0.0000  0.0000  0.0000  0.0000  0.0000  0.0000  0.0000  0.0000  0.0000  0.0000
  o =  0.9237  v =  0.0000  0.0000  0.0000  0.0000  1.0000  0.0000  0.0000  0.0000  0.0000  0.0000      0.0000  0.0000  0.0000  0.0000  0.0000  0.0000  0.0000  0.0000  0.0000  0.0000
atom =   4  type =  1  l = 2
 
 onsite density matrix
 
spin component  1
 
  0.7184  0.0000  0.0000  0.0000  0.0000
  0.0000  0.7184  0.0000  0.0000  0.0000
  0.0000  0.0000  0.7184  0.0000  0.0000
  0.0000  0.0000  0.0000  0.7184  0.0000
  0.0000  0.0000  0.0000  0.0000  0.7184
 
spin component  2
 
  0.9237  0.0000  0.0000  0.0000  0.0000
  0.0000  0.9237  0.0000  0.0000  0.0000
  0.0000  0.0000  0.9237  0.0000  0.0000
  0.0000  0.0000  0.0000  0.9237  0.0000
  0.0000  0.0000  0.0000  0.0000  0.9237
 
 occupancies and eigenvectors
 
  o =  0.7184  v =  1.0000  0.0000  0.0000  0.0000  0.0000  0.0000  0.0000  0.0000  0.0000  0.0000      0.0000  0.0000  0.0000  0.0000  0.0000  0.0000  0.0000  0.0000  0.0000  0.0000
  o =  0.7184  v =  0.0000  1.0000  0.0000  0.0000  0.0000  0.0000  0.0000  0.0000  0.0000  0.0000      0.0000  0.0000  0.0000  0.0000  0.0000  0.0000  0.0000  0.0000  0.0000  0.0000
  o =  0.7184  v =  0.0000  0.0000  1.0000  0.0000  0.0000  0.0000  0.0000  0.0000  0.0000  0.0000      0.0000  0.0000  0.0000  0.0000  0.0000  0.0000  0.0000  0.0000  0.0000  0.0000
  o =  0.7184  v =  0.0000  0.0000  0.0000  1.0000  0.0000  0.0000  0.0000  0.0000  0.0000  0.0000      0.0000  0.0000  0.0000  0.0000  0.0000  0.0000  0.0000  0.0000  0.0000  0.0000
  o =  0.7184  v =  0.0000  0.0000  0.0000  0.0000  1.0000  0.0000  0.0000  0.0000  0.0000  0.0000      0.0000  0.0000  0.0000  0.0000  0.0000  0.0000  0.0000  0.0000  0.0000  0.0000
  o =  0.9237  v =  0.0000  0.0000  0.0000  0.0000  0.0000  1.0000  0.0000  0.0000  0.0000  0.0000      0.0000  0.0000  0.0000  0.0000  0.0000  0.0000  0.0000  0.0000  0.0000  0.0000
  o =  0.9237  v =  0.0000  0.0000  0.0000  0.0000  0.0000  0.0000  1.0000  0.0000  0.0000  0.0000      0.0000  0.0000  0.0000  0.0000  0.0000  0.0000  0.0000  0.0000  0.0000  0.0000
  o =  0.9237  v =  0.0000  0.0000  0.0000  0.0000  0.0000  0.0000  0.0000  1.0000  0.0000  0.0000      0.0000  0.0000  0.0000  0.0000  0.0000  0.0000  0.0000  0.0000  0.0000  0.0000
  o =  0.9237  v =  0.0000  0.0000  0.0000  0.0000  0.0000  0.0000  0.0000  0.0000  1.0000  0.0000      0.0000  0.0000  0.0000  0.0000  0.0000  0.0000  0.0000  0.0000  0.0000  0.0000
  o =  0.9237  v =  0.0000  0.0000  0.0000  0.0000  0.0000  0.0000  0.0000  0.0000  0.0000  1.0000      0.0000  0.0000  0.0000  0.0000  0.0000  0.0000  0.0000  0.0000  0.0000  0.0000
atom =   5  type =  1  l = 2
 
 onsite density matrix
 
spin component  1
 
  0.7184  0.0000  0.0000  0.0000  0.0000
  0.0000  0.7184  0.0000  0.0000  0.0000
  0.0000  0.0000  0.7184  0.0000  0.0000
  0.0000  0.0000  0.0000  0.7184  0.0000
  0.0000  0.0000  0.0000  0.0000  0.7184
 
spin component  2
 
  0.9237  0.0000  0.0000  0.0000  0.0000
  0.0000  0.9237  0.0000  0.0000  0.0000
  0.0000  0.0000  0.9237  0.0000  0.0000
  0.0000  0.0000  0.0000  0.9237  0.0000
  0.0000  0.0000  0.0000  0.0000  0.9237
 
 occupancies and eigenvectors
 
  o =  0.7184  v =  1.0000  0.0000  0.0000  0.0000  0.0000  0.0000  0.0000  0.0000  0.0000  0.0000      0.0000  0.0000  0.0000  0.0000  0.0000  0.0000  0.0000  0.0000  0.0000  0.0000
  o =  0.7184  v =  0.0000  1.0000  0.0000  0.0000  0.0000  0.0000  0.0000  0.0000  0.0000  0.0000      0.0000  0.0000  0.0000  0.0000  0.0000  0.0000  0.0000  0.0000  0.0000  0.0000
  o =  0.7184  v =  0.0000  0.0000  1.0000  0.0000  0.0000  0.0000  0.0000  0.0000  0.0000  0.0000      0.0000  0.0000  0.0000  0.0000  0.0000  0.0000  0.0000  0.0000  0.0000  0.0000
  o =  0.7184  v =  0.0000  0.0000  0.0000  1.0000  0.0000  0.0000  0.0000  0.0000  0.0000  0.0000      0.0000  0.0000  0.0000  0.0000  0.0000  0.0000  0.0000  0.0000  0.0000  0.0000
  o =  0.7184  v =  0.0000  0.0000  0.0000  0.0000  1.0000  0.0000  0.0000  0.0000  0.0000  0.0000      0.0000  0.0000  0.0000  0.0000  0.0000  0.0000  0.0000  0.0000  0.0000  0.0000
  o =  0.9237  v =  0.0000  0.0000  0.0000  0.0000  0.0000  1.0000  0.0000  0.0000  0.0000  0.0000      0.0000  0.0000  0.0000  0.0000  0.0000  0.0000  0.0000  0.0000  0.0000  0.0000
  o =  0.9237  v =  0.0000  0.0000  0.0000  0.0000  0.0000  0.0000  1.0000  0.0000  0.0000  0.0000      0.0000  0.0000  0.0000  0.0000  0.0000  0.0000  0.0000  0.0000  0.0000  0.0000
  o =  0.9237  v =  0.0000  0.0000  0.0000  0.0000  0.0000  0.0000  0.0000  1.0000  0.0000  0.0000      0.0000  0.0000  0.0000  0.0000  0.0000  0.0000  0.0000  0.0000  0.0000  0.0000
  o =  0.9237  v =  0.0000  0.0000  0.0000  0.0000  0.0000  0.0000  0.0000  0.0000  1.0000  0.0000      0.0000  0.0000  0.0000  0.0000  0.0000  0.0000  0.0000  0.0000  0.0000  0.0000
  o =  0.9237  v =  0.0000  0.0000  0.0000  0.0000  0.0000  0.0000  0.0000  0.0000  0.0000  1.0000      0.0000  0.0000  0.0000  0.0000  0.0000  0.0000  0.0000  0.0000  0.0000  0.0000
atom =   6  type =  1  l = 2
 
 onsite density matrix
 
spin component  1
 
  0.9237  0.0000  0.0000  0.0000  0.0000
  0.0000  0.9237  0.0000  0.0000  0.0000
  0.0000  0.0000  0.9237  0.0000  0.0000
  0.0000  0.0000  0.0000  0.9237  0.0000
  0.0000  0.0000  0.0000  0.0000  0.9237
 
spin component  2
 
  0.7184  0.0000  0.0000  0.0000  0.0000
  0.0000  0.7184  0.0000  0.0000  0.0000
  0.0000  0.0000  0.7184  0.0000  0.0000
  0.0000  0.0000  0.0000  0.7184  0.0000
  0.0000  0.0000  0.0000  0.0000  0.7184
 
 occupancies and eigenvectors
 
  o =  0.7184  v =  0.0000  0.0000  0.0000  0.0000  0.0000  1.0000  0.0000  0.0000  0.0000  0.0000      0.0000  0.0000  0.0000  0.0000  0.0000  0.0000  0.0000  0.0000  0.0000  0.0000
  o =  0.7184  v =  0.0000  0.0000  0.0000  0.0000  0.0000  0.0000  1.0000  0.0000  0.0000  0.0000      0.0000  0.0000  0.0000  0.0000  0.0000  0.0000  0.0000  0.0000  0.0000  0.0000
  o =  0.7184  v =  0.0000  0.0000  0.0000  0.0000  0.0000  0.0000  0.0000  1.0000  0.0000  0.0000      0.0000  0.0000  0.0000  0.0000  0.0000  0.0000  0.0000  0.0000  0.0000  0.0000
  o =  0.7184  v =  0.0000  0.0000  0.0000  0.0000  0.0000  0.0000  0.0000  0.0000  1.0000  0.0000      0.0000  0.0000  0.0000  0.0000  0.0000  0.0000  0.0000  0.0000  0.0000  0.0000
  o =  0.7184  v =  0.0000  0.0000  0.0000  0.0000  0.0000  0.0000  0.0000  0.0000  0.0000  1.0000      0.0000  0.0000  0.0000  0.0000  0.0000  0.0000  0.0000  0.0000  0.0000  0.0000
  o =  0.9237  v =  1.0000  0.0000  0.0000  0.0000  0.0000  0.0000  0.0000  0.0000  0.0000  0.0000      0.0000  0.0000  0.0000  0.0000  0.0000  0.0000  0.0000  0.0000  0.0000  0.0000
  o =  0.9237  v =  0.0000  1.0000  0.0000  0.0000  0.0000  0.0000  0.0000  0.0000  0.0000  0.0000      0.0000  0.0000  0.0000  0.0000  0.0000  0.0000  0.0000  0.0000  0.0000  0.0000
  o =  0.9237  v =  0.0000  0.0000  1.0000  0.0000  0.0000  0.0000  0.0000  0.0000  0.0000  0.0000      0.0000  0.0000  0.0000  0.0000  0.0000  0.0000  0.0000  0.0000  0.0000  0.0000
  o =  0.9237  v =  0.0000  0.0000  0.0000  1.0000  0.0000  0.0000  0.0000  0.0000  0.0000  0.0000      0.0000  0.0000  0.0000  0.0000  0.0000  0.0000  0.0000  0.0000  0.0000  0.0000
  o =  0.9237  v =  0.0000  0.0000  0.0000  0.0000  1.0000  0.0000  0.0000  0.0000  0.0000  0.0000      0.0000  0.0000  0.0000  0.0000  0.0000  0.0000  0.0000  0.0000  0.0000  0.0000
atom =   7  type =  1  l = 2
 
 onsite density matrix
 
spin component  1
 
  0.9237  0.0000  0.0000  0.0000  0.0000
  0.0000  0.9237  0.0000  0.0000  0.0000
  0.0000  0.0000  0.9237  0.0000  0.0000
  0.0000  0.0000  0.0000  0.9237  0.0000
  0.0000  0.0000  0.0000  0.0000  0.9237
 
spin component  2
 
  0.7184  0.0000  0.0000  0.0000  0.0000
  0.0000  0.7184  0.0000  0.0000  0.0000
  0.0000  0.0000  0.7184  0.0000  0.0000
  0.0000  0.0000  0.0000  0.7184  0.0000
  0.0000  0.0000  0.0000  0.0000  0.7184
 
 occupancies and eigenvectors
 
  o =  0.7184  v =  0.0000  0.0000  0.0000  0.0000  0.0000  1.0000  0.0000  0.0000  0.0000  0.0000      0.0000  0.0000  0.0000  0.0000  0.0000  0.0000  0.0000  0.0000  0.0000  0.0000
  o =  0.7184  v =  0.0000  0.0000  0.0000  0.0000  0.0000  0.0000  1.0000  0.0000  0.0000  0.0000      0.0000  0.0000  0.0000  0.0000  0.0000  0.0000  0.0000  0.0000  0.0000  0.0000
  o =  0.7184  v =  0.0000  0.0000  0.0000  0.0000  0.0000  0.0000  0.0000  1.0000  0.0000  0.0000      0.0000  0.0000  0.0000  0.0000  0.0000  0.0000  0.0000  0.0000  0.0000  0.0000
  o =  0.7184  v =  0.0000  0.0000  0.0000  0.0000  0.0000  0.0000  0.0000  0.0000  1.0000  0.0000      0.0000  0.0000  0.0000  0.0000  0.0000  0.0000  0.0000  0.0000  0.0000  0.0000
  o =  0.7184  v =  0.0000  0.0000  0.0000  0.0000  0.0000  0.0000  0.0000  0.0000  0.0000  1.0000      0.0000  0.0000  0.0000  0.0000  0.0000  0.0000  0.0000  0.0000  0.0000  0.0000
  o =  0.9237  v =  1.0000  0.0000  0.0000  0.0000  0.0000  0.0000  0.0000  0.0000  0.0000  0.0000      0.0000  0.0000  0.0000  0.0000  0.0000  0.0000  0.0000  0.0000  0.0000  0.0000
  o =  0.9237  v =  0.0000  1.0000  0.0000  0.0000  0.0000  0.0000  0.0000  0.0000  0.0000  0.0000      0.0000  0.0000  0.0000  0.0000  0.0000  0.0000  0.0000  0.0000  0.0000  0.0000
  o =  0.9237  v =  0.0000  0.0000  1.0000  0.0000  0.0000  0.0000  0.0000  0.0000  0.0000  0.0000      0.0000  0.0000  0.0000  0.0000  0.0000  0.0000  0.0000  0.0000  0.0000  0.0000
  o =  0.9237  v =  0.0000  0.0000  0.0000  1.0000  0.0000  0.0000  0.0000  0.0000  0.0000  0.0000      0.0000  0.0000  0.0000  0.0000  0.0000  0.0000  0.0000  0.0000  0.0000  0.0000
  o =  0.9237  v =  0.0000  0.0000  0.0000  0.0000  1.0000  0.0000  0.0000  0.0000  0.0000  0.0000      0.0000  0.0000  0.0000  0.0000  0.0000  0.0000  0.0000  0.0000  0.0000  0.0000
atom =  48  type =  4  l = 2
 
 onsite density matrix
 
spin component  1
 
  1.0801  0.0000  0.0000  0.0000  0.0000
  0.0000  1.0801  0.0000  0.0000  0.0000
  0.0000  0.0000  1.0801  0.0000  0.0000
  0.0000  0.0000  0.0000  1.0801  0.0000
  0.0000  0.0000  0.0000  0.0000  1.0801
 
spin component  2
 
  0.7561  0.0000  0.0000  0.0000  0.0000
  0.0000  0.7561  0.0000  0.0000  0.0000
  0.0000  0.0000  0.7561  0.0000  0.0000
  0.0000  0.0000  0.0000  0.7561  0.0000
  0.0000  0.0000  0.0000  0.0000  0.7561
 
 occupancies and eigenvectors
 
  o =  0.7561  v =  0.0000  0.0000  0.0000  0.0000  0.0000  1.0000  0.0000  0.0000  0.0000  0.0000      0.0000  0.0000  0.0000  0.0000  0.0000  0.0000  0.0000  0.0000  0.0000  0.0000
  o =  0.7561  v =  0.0000  0.0000  0.0000  0.0000  0.0000  0.0000  1.0000  0.0000  0.0000  0.0000      0.0000  0.0000  0.0000  0.0000  0.0000  0.0000  0.0000  0.0000  0.0000  0.0000
  o =  0.7561  v =  0.0000  0.0000  0.0000  0.0000  0.0000  0.0000  0.0000  1.0000  0.0000  0.0000      0.0000  0.0000  0.0000  0.0000  0.0000  0.0000  0.0000  0.0000  0.0000  0.0000
  o =  0.7561  v =  0.0000  0.0000  0.0000  0.0000  0.0000  0.0000  0.0000  0.0000  1.0000  0.0000      0.0000  0.0000  0.0000  0.0000  0.0000  0.0000  0.0000  0.0000  0.0000  0.0000
  o =  0.7561  v =  0.0000  0.0000  0.0000  0.0000  0.0000  0.0000  0.0000  0.0000  0.0000  1.0000      0.0000  0.0000  0.0000  0.0000  0.0000  0.0000  0.0000  0.0000  0.0000  0.0000
  o =  1.0801  v =  1.0000  0.0000  0.0000  0.0000  0.0000  0.0000  0.0000  0.0000  0.0000  0.0000      0.0000  0.0000  0.0000  0.0000  0.0000  0.0000  0.0000  0.0000  0.0000  0.0000
  o =  1.0801  v =  0.0000  1.0000  0.0000  0.0000  0.0000  0.0000  0.0000  0.0000  0.0000  0.0000      0.0000  0.0000  0.0000  0.0000  0.0000  0.0000  0.0000  0.0000  0.0000  0.0000
  o =  1.0801  v =  0.0000  0.0000  1.0000  0.0000  0.0000  0.0000  0.0000  0.0000  0.0000  0.0000      0.0000  0.0000  0.0000  0.0000  0.0000  0.0000  0.0000  0.0000  0.0000  0.0000
  o =  1.0801  v =  0.0000  0.0000  0.0000  1.0000  0.0000  0.0000  0.0000  0.0000  0.0000  0.0000      0.0000  0.0000  0.0000  0.0000  0.0000  0.0000  0.0000  0.0000  0.0000  0.0000
  o =  1.0801  v =  0.0000  0.0000  0.0000  0.0000  1.0000  0.0000  0.0000  0.0000  0.0000  0.0000      0.0000  0.0000  0.0000  0.0000  0.0000  0.0000  0.0000  0.0000  0.0000  0.0000
     EDDAV:  cpu time   53.5715: real time   53.5922
 BZINTS: Fermi energy: 22.995883;369.000000 electrons
         Band energy: 881.984691;  BLOECHL correction: -0.073813
       DOS:  cpu time    0.2386: real time    0.2386
    --------------------------------------------
      LOOP:  cpu time   53.8529: real time   53.8747

 eigenvalue-minimisations  : 67600
 total energy-change (2. order) : 0.4351528E+04  (-0.2097017E+05)
 number of electron     369.0000000 magnetization       1.0000000
 augmentation part      369.0000000 magnetization       1.0000000

 Free energy of the ion-electron system (eV)
  ---------------------------------------------------
  alpha Z        PSCENC =      1852.53193140
  Ewald energy   TEWEN  =    -27675.32748867
  -Hartree energ DENC   =    -15488.78575097
  -exchange      EXHF   =         0.00000000
  -V(xc)+E(xc)   XCENC  =      1231.31580761
  PAW double counting   =     36898.09602023   -37447.99507489
  entropy T*S    EENTRO =         0.00000000
  eigenvalues    EBANDS =       881.98469063
  atomic energy  EATOM  =     44099.70784232
  Solvation  Ediel_sol  =         0.00000000
  ---------------------------------------------------
  free energy    TOTEN  =      4351.52797767 eV

  energy without entropy =     4351.52797767  energy(sigma->0) =     4351.52797767


--------------------------------------------------------------------------------------------------------




--------------------------------------- Iteration      1(   2)  ---------------------------------------


     EDDAV:  cpu time   52.5281: real time   52.5549
 BZINTS: Fermi energy:  7.979017;369.000000 electrons
         Band energy:***********;  BLOECHL correction: -0.027358
       DOS:  cpu time    0.2548: real time    0.2548
    --------------------------------------------
      LOOP:  cpu time   52.7830: real time   52.8097

 eigenvalue-minimisations  : 65880
 total energy-change (2. order) :-0.4223472E+04  (-0.3966764E+04)
 number of electron     369.0000000 magnetization       1.0000000
 augmentation part      369.0000000 magnetization       1.0000000

 Free energy of the ion-electron system (eV)
  ---------------------------------------------------
  alpha Z        PSCENC =      1852.53193140
  Ewald energy   TEWEN  =    -27675.32748867
  -Hartree energ DENC   =    -15488.78575097
  -exchange      EXHF   =         0.00000000
  -V(xc)+E(xc)   XCENC  =      1231.31580761
  PAW double counting   =     36898.09602023   -37447.99507489
  entropy T*S    EENTRO =         0.00000000
  eigenvalues    EBANDS =     -3341.48742752
  atomic energy  EATOM  =     44099.70784232
  Solvation  Ediel_sol  =         0.00000000
  ---------------------------------------------------
  free energy    TOTEN  =       128.05585952 eV

  energy without entropy =      128.05585952  energy(sigma->0) =      128.05585952


--------------------------------------------------------------------------------------------------------




--------------------------------------- Iteration      1(   3)  ---------------------------------------


     EDDAV:  cpu time   55.9068: real time   55.9282
 BZINTS: Fermi energy:  6.416204;369.000000 electrons
         Band energy:***********;  BLOECHL correction: -0.005878
       DOS:  cpu time    0.2699: real time    0.2699
    --------------------------------------------
      LOOP:  cpu time   56.1767: real time   56.1981

 eigenvalue-minimisations  : 71088
 total energy-change (2. order) :-0.5420693E+03  (-0.5234501E+03)
 number of electron     369.0000000 magnetization       1.0000000
 augmentation part      369.0000000 magnetization       1.0000000

 Free energy of the ion-electron system (eV)
  ---------------------------------------------------
  alpha Z        PSCENC =      1852.53193140
  Ewald energy   TEWEN  =    -27675.32748867
  -Hartree energ DENC   =    -15488.78575097
  -exchange      EXHF   =         0.00000000
  -V(xc)+E(xc)   XCENC  =      1231.31580761
[...]
   46       -0.000  -0.000  -0.012  -0.012
   47       -0.000   0.000  -0.013  -0.013
   48        0.005   0.000   0.715   0.720
--------------------------------------------------
tot         -0.015   0.104  -1.096  -1.007
 
    CHARGE:  cpu time    0.8823: real time    0.8824
    FORLOC:  cpu time    0.0053: real time    0.0053
    FORNL :  cpu time    6.2539: real time    6.2563
    STRESS:  cpu time   19.3209: real time   19.3264
    FORCOR:  cpu time    0.0323: real time    0.0323
    FORHAR:  cpu time    0.0082: real time    0.0082
    MIXING:  cpu time    0.0073: real time    0.0073
    OFIELD:  cpu time    0.0001: real time    0.0001

  FORCE on cell =-STRESS in cart. coord.  units (eV):
  Direction    XX          YY          ZZ          XY          YZ          ZX
  --------------------------------------------------------------------------------------
  Alpha Z  1852.53193  1852.53193  1852.53193
  Ewald  -10684.20064 -9747.92118 -7243.33885   -10.47469    18.05022   116.61997
  Hartree  4063.15853  4800.09326  6681.86523    -5.46654     9.33124    19.34147
  E(xc)   -2145.59499 -2142.30315 -2144.04560    -0.03771     0.00039    -0.97245
  Local     149.16486 -1511.42923 -5836.44533    15.67615   -26.88145  -124.52279
  n-local -1502.61863 -1509.83051 -1484.03197    -0.06989     0.19816     3.96790
  augment  1693.64174  1698.48499  1680.36672     0.12272    -0.12248    -5.21010
  Kinetic  6582.53695  6571.50910  6501.45487     0.20801    -0.47871    -9.32645
  Fock        0.00000     0.00000     0.00000     0.00000     0.00000     0.00000
  -------------------------------------------------------------------------------------
  Total       8.61975    11.13520     8.35699    -0.04195     0.09737    -0.10245
  in kB      27.12078    35.03527    26.29405    -0.13200     0.30637    -0.32235
  external pressure =       29.48 kB  Pullay stress =        0.00 kB


 VOLUME and BASIS-vectors are now :
 -----------------------------------------------------------------------------
  energy-cutoff  :      500.00
  volume of cell :      509.22
      direct lattice vectors                 reciprocal lattice vectors
     9.109515956  0.006478648 -0.046442580     0.109778850 -0.000077333  0.000682142
     0.003978019  5.651900078  0.000549527    -0.000125929  0.176931739 -0.000018784
    -0.061458039  0.001006298  9.890708564     0.000515482 -0.000010193  0.101108195

  length of vectors
     9.109636647  5.651901505  9.890899555     0.109780996  0.176931785  0.101109510


 FORCES acting on ions
    electron-ion (+dipol)            ewald-force                    non-local-force                 convergence-correction
 -----------------------------------------------------------------------------------------------
   -.884E+00 -.258E+03 0.215E+01   0.863E+00 0.258E+03 -.208E+01   0.161E-01 -.516E+00 0.107E-01   0.654E-02 0.170E-01 -.903E-01
   -.327E+00 -.262E+03 -.184E+01   0.304E+00 0.263E+03 0.167E+01   0.302E-01 -.393E+00 0.928E-01   -.189E-02 0.256E-01 0.896E-01
   -.149E+01 -.265E+03 -.719E+00   0.148E+01 0.265E+03 0.497E+00   0.420E-02 -.148E+00 0.115E+00   0.579E-03 -.219E-01 0.103E+00
   0.456E+01 0.262E+03 0.874E+01   -.428E+01 -.263E+03 -.868E+01   -.236E+00 0.479E+00 0.366E-01   -.133E-01 -.303E-01 -.112E+00
   -.166E+01 0.262E+03 -.893E+01   0.144E+01 -.263E+03 0.899E+01   0.149E+00 0.429E+00 -.145E+00   0.156E-01 -.289E-01 0.111E+00
   0.156E+01 0.261E+03 0.262E+02   -.188E+01 -.262E+03 -.253E+02   0.208E+00 0.347E+00 -.632E+00   0.273E-01 0.213E-01 -.227E+00
   -.224E+01 0.262E+03 -.259E+02   0.253E+01 -.262E+03 0.252E+02   -.185E+00 0.419E+00 0.456E+00   -.302E-01 0.116E-01 0.230E+00
   0.693E+02 0.119E+03 -.366E+02   -.567E+02 -.118E+03 0.293E+02   -.132E+02 -.171E+01 0.777E+01   -.448E-01 -.221E-01 -.124E-01
   0.648E+02 0.120E+03 -.461E+02   -.516E+02 -.119E+03 0.395E+02   -.138E+02 -.150E+01 0.717E+01   -.338E-01 0.336E-02 0.171E-01
   0.648E+02 0.116E+03 -.427E+02   -.523E+02 -.114E+03 0.361E+02   -.131E+02 -.208E+01 0.716E+01   0.235E-01 0.120E-02 -.309E-01
   0.537E+02 0.996E+02 -.398E+02   -.406E+02 -.971E+02 0.329E+02   -.135E+02 -.275E+01 0.727E+01   0.634E-01 0.180E-01 0.179E-01
   -.709E+02 -.122E+03 0.433E+02   0.586E+02 0.121E+03 -.363E+02   0.128E+02 0.170E+01 -.754E+01   0.510E-01 -.887E-03 -.756E-02
   -.679E+02 -.118E+03 0.439E+02   0.549E+02 0.117E+03 -.373E+02   0.135E+02 0.185E+01 -.713E+01   0.394E-01 0.360E-01 -.838E-02
   -.621E+02 -.105E+03 0.430E+02   0.487E+02 0.103E+03 -.355E+02   0.135E+02 0.210E+01 -.762E+01   -.927E-01 -.431E-01 0.368E-01
   -.599E+02 -.112E+03 0.420E+02   0.471E+02 0.110E+03 -.350E+02   0.133E+02 0.211E+01 -.757E+01   0.525E-02 0.242E-01 -.276E-01
   -.666E+02 0.124E+03 0.478E+02   0.536E+02 -.123E+03 -.412E+02   0.136E+02 -.142E+01 -.705E+01   0.483E-01 -.253E-01 -.610E-01
   -.705E+02 0.122E+03 0.376E+02   0.580E+02 -.121E+03 -.306E+02   0.132E+02 -.162E+01 -.753E+01   0.314E-01 0.559E-02 0.548E-01
   -.537E+02 0.985E+02 0.398E+02   0.403E+02 -.960E+02 -.330E+02   0.137E+02 -.270E+01 -.708E+01   -.380E-01 -.998E-02 -.694E-01
   -.661E+02 0.117E+03 0.426E+02   0.536E+02 -.115E+03 -.362E+02   0.131E+02 -.197E+01 -.696E+01   -.512E-01 0.304E-01 0.836E-01
   0.721E+02 -.125E+03 -.442E+02   -.600E+02 0.124E+03 0.375E+02   -.127E+02 0.162E+01 0.740E+01   -.491E-01 -.156E-02 -.389E-01
   0.677E+02 -.118E+03 -.449E+02   -.547E+02 0.117E+03 0.384E+02   -.135E+02 0.190E+01 0.694E+01   -.412E-01 0.377E-01 0.566E-01
   0.612E+02 -.105E+03 -.414E+02   -.476E+02 0.103E+03 0.341E+02   -.137E+02 0.183E+01 0.746E+01   0.857E-01 -.476E-01 -.921E-01
   0.609E+02 -.114E+03 -.431E+02   -.480E+02 0.112E+03 0.361E+02   -.134E+02 0.199E+01 0.746E+01   -.121E-02 0.304E-01 0.828E-01
   0.201E+03 0.119E+03 0.572E+02   -.194E+03 -.110E+03 -.513E+02   -.730E+01 -.106E+02 -.648E+01   -.590E-01 0.928E-03 -.662E-01
   0.199E+03 0.116E+03 0.528E+02   -.192E+03 -.106E+03 -.470E+02   -.740E+01 -.108E+02 -.644E+01   -.388E-01 -.392E-01 0.649E-01
   0.173E+03 0.944E+02 0.786E+02   -.165E+03 -.829E+02 -.731E+02   -.886E+01 -.119E+02 -.627E+01   0.706E-01 0.497E-01 -.915E-01
   0.195E+03 0.113E+03 0.640E+02   -.188E+03 -.102E+03 -.593E+02   -.749E+01 -.108E+02 -.562E+01   0.225E-01 -.320E-01 0.110E+00
   -.199E+03 -.115E+03 -.511E+02   0.193E+03 0.106E+03 0.453E+02   0.724E+01 0.108E+02 0.656E+01   0.478E-01 0.260E-01 -.648E-01
   -.202E+03 -.120E+03 -.639E+02   0.196E+03 0.111E+03 0.583E+02   0.729E+01 0.102E+02 0.637E+01   0.563E-01 -.540E-02 0.914E-01
   -.185E+03 -.105E+03 -.325E+02   0.178E+03 0.929E+02 0.271E+02   0.709E+01 0.127E+02 0.467E+01   -.637E-01 0.185E-01 -.133E+00
   -.191E+03 -.107E+03 -.719E+02   0.184E+03 0.969E+02 0.665E+02   0.746E+01 0.109E+02 0.610E+01   -.310E-01 -.368E-01 0.124E+00
   -.199E+03 0.122E+03 -.551E+02   0.193E+03 -.113E+03 0.492E+02   0.758E+01 -.103E+02 0.647E+01   0.439E-01 -.155E-02 -.167E-01
   -.198E+03 0.118E+03 -.551E+02   0.192E+03 -.108E+03 0.493E+02   0.755E+01 -.106E+02 0.641E+01   0.544E-01 -.372E-01 0.180E-01
   -.174E+03 0.946E+02 -.769E+02   0.166E+03 -.832E+02 0.713E+02   0.882E+01 -.118E+02 0.640E+01   -.952E-01 0.452E-01 -.432E-02
   -.196E+03 0.114E+03 -.647E+02   0.190E+03 -.104E+03 0.599E+02   0.747E+01 -.105E+02 0.556E+01   -.350E-03 -.267E-01 -.151E-01
   0.203E+03 -.123E+03 0.637E+02   -.197E+03 0.114E+03 -.583E+02   -.745E+01 0.999E+01 -.622E+01   -.682E-01 0.245E-01 -.493E-01
   0.199E+03 -.118E+03 0.508E+02   -.193E+03 0.109E+03 -.450E+02   -.737E+01 0.105E+02 -.644E+01   -.335E-01 -.275E-02 0.249E-01
   0.191E+03 -.108E+03 0.716E+02   -.184E+03 0.973E+02 -.661E+02   -.756E+01 0.109E+02 -.615E+01   0.104E-01 -.581E-02 -.785E-01
   0.186E+03 -.107E+03 0.304E+02   -.179E+03 0.947E+02 -.249E+02   -.705E+01 0.127E+02 -.470E+01   0.871E-01 -.160E-01 0.919E-01
   -.957E+00 0.413E+02 -.708E+01   0.128E+01 -.407E+02 0.708E+01   0.244E+00 0.297E+00 0.252E+00   -.639E-01 0.282E-02 -.310E-01
   0.325E+01 0.454E+02 -.323E+00   -.321E+01 -.448E+02 0.325E+00   -.409E-02 0.362E+00 0.476E-01   -.280E-01 -.431E-02 0.276E-01
   0.151E+00 0.418E+02 0.786E+01   -.503E+00 -.411E+02 -.780E+01   -.227E+00 0.286E+00 -.231E+00   0.620E-01 -.493E-03 -.374E-01
   -.337E+01 0.462E+02 -.620E+00   0.330E+01 -.455E+02 0.497E+00   -.181E-01 0.317E+00 -.866E-02   0.299E-01 -.827E-03 0.410E-01
   -.849E+00 -.513E+02 0.119E+01   0.140E+01 0.510E+02 -.770E+00   0.403E+00 -.232E-01 0.172E+00   -.480E-01 -.367E-02 -.614E-01
   0.102E+00 -.440E+02 0.577E+00   0.109E+00 0.433E+02 -.824E+00   0.189E+00 -.336E+00 -.182E+00   -.444E-01 0.584E-02 0.637E-01
   0.901E+00 -.438E+02 -.719E+00   -.107E+01 0.431E+02 0.987E+00   -.227E+00 -.339E+00 0.184E+00   0.393E-01 0.687E-02 -.655E-01
   0.135E+01 -.520E+02 -.222E+01   -.186E+01 0.517E+02 0.180E+01   -.406E+00 -.259E-02 -.157E+00   0.522E-01 -.478E-02 0.643E-01
   0.210E+01 -.230E+03 0.234E+01   -.202E+01 0.231E+03 -.222E+01   -.833E-01 -.102E+01 -.105E-01   -.240E-02 -.176E-01 -.106E+00
 -----------------------------------------------------------------------------------------------
   0.395E+00 -.113E+01 -.370E+00   -.504E-12 0.909E-12 0.746E-13   -.472E+00 0.103E+01 0.407E+00   0.602E-03 -.240E-01 0.629E-02
 
 
 POSITION                                       TOTAL-FORCE (eV/Angst)
 -----------------------------------------------------------------------------------
      2.27374      3.67704      1.22552         0.002757      0.126499     -0.009684
      2.24162      3.69105      6.16993         0.006698      0.180783      0.002191
      6.79722      3.69226      6.14884         0.002566      0.168392     -0.004650
      2.25188      1.98700      3.70269         0.036635     -0.242757     -0.016936
      2.22789      1.98791      8.63387        -0.044829     -0.249794      0.030930
      6.80635      1.96382      3.69051        -0.081772     -0.257174      0.003471
      6.78224      1.96499      8.60117         0.079158     -0.265077     -0.005091
      1.00395      0.64928      4.56355        -0.621708     -0.438499      0.433938
      1.00918      0.63891      9.50713        -0.721391     -0.406318      0.561055
      5.54530      0.65116      4.56609        -0.583247     -0.367651      0.483869
      5.50407      0.61628      9.52249        -0.319294     -0.241289      0.381591
      3.53041      4.99427      0.36568         0.660130      0.362836     -0.577881
      3.48224      5.03596      5.31242         0.565991      0.303077     -0.515267
      8.12390      5.04137      0.28581         0.059339     -0.003640     -0.091934
      8.06471      5.02596      5.26161         0.518667      0.211967     -0.577252
      3.46724      0.64460      2.83523         0.754965     -0.419893     -0.577764
      3.46571      0.65005      7.77637         0.647509     -0.454963     -0.447726
      8.08080      0.61038      2.76870         0.316594     -0.239471     -0.373894
      8.03750      0.65246      7.72720         0.604320     -0.366584     -0.501498
      1.02356      4.98858      2.08651        -0.688610      0.385266      0.590207
      1.00448      5.03967      7.02725        -0.569600      0.310042      0.523494
      5.53864      5.04542      2.13047        -0.029906     -0.029190      0.065077
      5.53579      5.02421      7.03705        -0.539003      0.210860      0.582176
      1.19572      2.15067      2.01315        -1.161933     -0.855213     -0.639977
      1.16073      2.15769      6.94910        -1.054000     -0.801221     -0.610166
      5.73663      2.10016      2.04049        -0.733001     -0.316224     -0.808252
      5.72411      2.13974      6.94966        -1.102709     -0.702475     -0.741535
      3.33678      3.50835      2.91461         1.076898      0.857714      0.625560
      3.28158      3.51403      7.83752         1.379219      0.997382      0.842152
      7.91567      3.47014      2.94796        -0.077175      0.552707     -0.863766
      7.86805      3.54121      7.79612         0.959857      0.591269      0.824519
      3.33530      2.14620      0.44256         1.182948     -0.892097      0.614935
      3.30929      2.14949      5.38809         1.068163     -0.808413      0.635823
      7.91699      2.10250      0.36022         0.706781     -0.282139      0.797720
      7.85544      2.14131      5.34137         1.137624     -0.723073      0.745017
      1.21391      3.51575      4.49797        -1.411226      1.030570     -0.839758
      1.15977      3.51052      9.42035        -1.104147      0.893616     -0.615437
      5.72909      3.54063      4.50237        -0.961783      0.593602     -0.822584
      5.67775      3.46658      9.34475         0.051972      0.577683      0.872030
      0.00696      0.98162      1.21222         0.507554      0.910539      0.214942
     -0.02902      0.98687      6.16505         0.014097      0.994586      0.076239
      4.53532      0.98530      1.23875        -0.515008      0.918444     -0.208263
      4.50678      0.98733      6.17509        -0.053963      0.996601     -0.091490
     -0.01327      4.65967      3.69971         0.902478     -0.250983      0.530136
     -0.03720      4.68239      8.63667         0.357050     -1.000768     -0.366051
      4.52129      4.68351      3.70622        -0.351610     -0.994068      0.384922
      4.49695      4.66425      8.64051        -0.870353     -0.248936     -0.519201
      6.82687      3.75375      1.20188        -0.003700     -0.316524      0.004061
 -----------------------------------------------------------------------------------
    total drift:                               -0.075946     -0.128304      0.042573


--------------------------------------------------------------------------------------------------------



  FREE ENERGIE OF THE ION-ELECTRON SYSTEM (eV)
  ---------------------------------------------------
  free  energy   TOTEN  =      -365.59539273 eV

  energy  without entropy=     -365.59539273  energy(sigma->0) =     -365.59539273
 


--------------------------------------------------------------------------------------------------------


    POTLOK:  cpu time    0.0384: real time    0.0384


--------------------------------------------------------------------------------------------------------


 writing wavefunctions
     LOOP+:  cpu time 3395.1450: real time 3406.6984
    4ORBIT:  cpu time    0.0000: real time    0.0000
 


 total charge     
 
# of ion       s       p       d       tot
------------------------------------------
    1        0.215   6.203   7.900  14.317
    2        0.217   6.206   7.903  14.325
    3        0.213   6.200   7.899  14.312
    4        0.215   6.203   7.900  14.319
    5        0.215   6.202   7.899  14.316
    6        0.213   6.199   7.897  14.309
    7        0.213   6.199   7.896  14.308
    8        1.569   3.485   0.000   5.054
    9        1.569   3.483   0.000   5.051
   10        1.568   3.488   0.000   5.056
   11        1.569   3.482   0.000   5.051
   12        1.569   3.483   0.000   5.052
   13        1.569   3.489   0.000   5.058
   14        1.571   3.493   0.000   5.064
   15        1.569   3.483   0.000   5.052
   16        1.568   3.483   0.000   5.052
   17        1.569   3.485   0.000   5.054
   18        1.569   3.482   0.000   5.052
   19        1.568   3.487   0.000   5.056
   20        1.569   3.483   0.000   5.051
   21        1.569   3.487   0.000   5.056
   22        1.571   3.494   0.000   5.065
   23        1.569   3.483   0.000   5.053
   24        1.573   3.476   0.000   5.049
   25        1.573   3.477   0.000   5.051
   26        1.575   3.468   0.000   5.044
   27        1.573   3.481   0.000   5.053
   28        1.573   3.477   0.000   5.050
   29        1.573   3.478   0.000   5.051
   30        1.574   3.469   0.000   5.043
   31        1.573   3.478   0.000   5.050
   32        1.573   3.477   0.000   5.050
   33        1.573   3.478   0.000   5.051
   34        1.575   3.468   0.000   5.043
   35        1.572   3.482   0.000   5.054
   36        1.573   3.479   0.000   5.052
   37        1.573   3.478   0.000   5.050
   38        1.573   3.479   0.000   5.051
   39        1.574   3.469   0.000   5.044
   40        0.703   1.024   4.076   5.803
   41        0.702   1.029   4.055   5.785
   42        0.703   1.025   4.075   5.803
   43        0.702   1.028   4.056   5.786
   44        0.703   1.025   4.059   5.787
   45        0.703   1.028   4.069   5.800
   46        0.705   1.032   4.077   5.814
   47        0.703   1.025   4.060   5.788
   48        0.192   6.147   8.812  15.151
--------------------------------------------------
tot         57.595 169.158  96.630 323.383
 


 magnetization (x)
 
# of ion       s       p       d       tot
------------------------------------------
    1       -0.006  -0.005  -1.732  -1.743
    2       -0.006  -0.005  -1.728  -1.739
    3        0.006   0.005   1.734   1.745
    4       -0.006  -0.005  -1.730  -1.740
    5       -0.006  -0.005  -1.731  -1.742
    6        0.006   0.005   1.738   1.749
    7        0.006   0.005   1.738   1.749
    8       -0.004   0.001   0.000  -0.003
    9       -0.004  -0.003   0.000  -0.007
   10        0.004   0.002   0.000   0.006
   11        0.004   0.003   0.000   0.006
   12       -0.004   0.001   0.000  -0.003
   13       -0.004  -0.002   0.000  -0.006
   14        0.001   0.005   0.000   0.006
   15        0.004   0.002   0.000   0.005
   16       -0.004  -0.003   0.000  -0.007
   17       -0.004   0.001   0.000  -0.003
   18        0.004   0.003   0.000   0.006
   19        0.004   0.002   0.000   0.006
   20       -0.004   0.001   0.000  -0.003
   21       -0.004  -0.002   0.000  -0.006
   22        0.001   0.006   0.000   0.007
   23        0.004   0.001   0.000   0.005
   24       -0.008  -0.023   0.000  -0.031
   25       -0.008  -0.022   0.000  -0.030
   26        0.005   0.021   0.000   0.026
   27        0.008   0.024   0.000   0.032
   28       -0.008  -0.023   0.000  -0.031
   29       -0.008  -0.015   0.000  -0.023
   30        0.008   0.062   0.000   0.070
   31        0.008   0.023   0.000   0.030
   32       -0.008  -0.024   0.000  -0.032
   33       -0.008  -0.022   0.000  -0.031
   34        0.005   0.022   0.000   0.027
   35        0.008   0.025   0.000   0.033
   36       -0.008  -0.016   0.000  -0.024
   37       -0.008  -0.023   0.000  -0.031
   38        0.008   0.023   0.000   0.031
   39        0.008   0.062   0.000   0.070
   40       -0.000  -0.001  -0.021  -0.022
   41       -0.000  -0.000  -0.003  -0.003
   42       -0.000  -0.001  -0.022  -0.023
   43       -0.000   0.000  -0.003  -0.003
   44       -0.000   0.000  -0.014  -0.014
   45       -0.000  -0.000  -0.012  -0.012
   46       -0.000  -0.000  -0.012  -0.012
   47       -0.000   0.000  -0.013  -0.013
   48        0.005   0.000   0.715   0.720
--------------------------------------------------
tot         -0.015   0.104  -1.096  -1.007
 
 BZINTS: Fermi energy:  3.352768;369.000000 electrons
         Band energy:***********;  BLOECHL correction:  0.000000

 total amount of memory used by VASP MPI-rank0   246404. kBytes
=======================================================================

   base      :      30000. kBytes
   nonlr-proj:       4247. kBytes
   fftplans  :       1587. kBytes
   grid      :       4505. kBytes
   one-center:        373. kBytes
   wavefun   :     205692. kBytes
 
  
  
 General timing and accounting informations for this job:
 ========================================================
  
                  Total CPU time used (sec):     3441.445
                            User time (sec):     3372.463
                          System time (sec):       68.981
                         Elapsed time (sec):     3454.739
  
                   Maximum memory used (kb):      416956.
                   Average memory used (kb):           0.
  
                          Minor page faults:       264993
                          Major page faults:            0
                 Voluntary context switches:         2053
