 vasp.5.4.4.18Apr17-6-g9f103f2a35 (build Jan 25 2019 22:30:10) complex          
  
 executed on             LinuxIFC date 2021.08.09  15:10:52
 running on   32 total cores
 distrk:  each k-point on   32 cores,    1 groups
 distr:  one band on NCORES_PER_BAND=   4 cores,    8 groups


--------------------------------------------------------------------------------------------------------


 INCAR:
 POTCAR:    PAW_PBE Ni_pv 06Sep2000               
 POTCAR:    PAW_PBE O 08Apr2002                   
 POTCAR:    PAW_PBE W 08Apr2002                   
 POTCAR:    PAW_PBE Cu_pv 06Sep2000               
 POTCAR:    PAW_PBE Ni_pv 06Sep2000               
   VRHFIN =Ni:                                                                  
   LEXCH  = PE                                                                  
   EATOM  =  3501.1230 eV,  257.3253 Ry                                         
                                                                                
   TITEL  = PAW_PBE Ni_pv 06Sep2000                                             
   LULTRA =        F    use ultrasoft PP ?                                      
   IUNSCR =        1    unscreen: 0-lin 1-nonlin 2-no                           
   RPACOR =    1.500    partial core radius                                     
   POMASS =   58.690; ZVAL   =   16.000    mass and valenz                      
   RCORE  =    2.000    outmost cutoff radius                                   
   RWIGS  =    2.000; RWIGS  =    1.058    wigner-seitz radius (au A)           
   ENMAX  =  367.986; ENMIN  =  275.989 eV                                      
   RCLOC  =    1.301    cutoff for local pot                                    
   LCOR   =        T    correct aug charges                                     
   LPAW   =        T    paw PP                                                  
   EAUG   =  703.443                                                            
   DEXC   =    0.000                                                            
   RMAX   =    2.041    core radius for proj-oper                               
   RAUG   =    1.300    factor for augmentation sphere                          
   RDEP   =    2.103    radius for radial grids                                 
   RDEPT  =    1.618    core radius for aug-charge                              
                                                                                
   Atomic configuration                                                         
    8 entries                                                                   
     n  l   j            E        occ.                                          
     1  0  0.50     -8206.4253   2.0000                                         
     2  0  0.50      -976.1748   2.0000                                         
     2  1  1.50      -839.0571   6.0000                                         
     3  0  0.50      -105.9991   2.0000                                         
     3  1  1.50       -66.4603   6.0000                                         
     3  2  2.50        -4.6458   9.0000                                         
     4  0  0.50        -4.4926   1.0000                                         
     4  3  2.50        -1.3606   0.0000                                         
   Description                                                                  
     l       E           TYP  RCUT    TYP  RCUT                                 
     1    -66.4602962     23  1.700                                             
     1     -1.3605826     23  1.700                                             
     2     -4.6457867     23  2.000                                             
     2     -6.0063693     23  2.000                                             
     0     -4.4925576     23  1.900                                             
     0     16.3626226     23  1.900                                             
  local pseudopotential read in
  partial core-charges read in
  partial kinetic energy density read in
  atomic valenz-charges read in
  non local Contribution for L=           1  read in
    real space projection operators read in
  non local Contribution for L=           1  read in
    real space projection operators read in
  non local Contribution for L=           2  read in
    real space projection operators read in
  non local Contribution for L=           2  read in
    real space projection operators read in
  non local Contribution for L=           0  read in
    real space projection operators read in
  non local Contribution for L=           0  read in
    real space projection operators read in
    PAW grid and wavefunctions read in
 
   number of l-projection  operators is LMAX  =           6
   number of lm-projection operators is LMMAX =          18
 
 POTCAR:    PAW_PBE O 08Apr2002                   
   VRHFIN =O: s2p4                                                              
   LEXCH  = PE                                                                  
   EATOM  =   432.3788 eV,   31.7789 Ry                                         
                                                                                
   TITEL  = PAW_PBE O 08Apr2002                                                 
   LULTRA =        F    use ultrasoft PP ?                                      
   IUNSCR =        1    unscreen: 0-lin 1-nonlin 2-no                           
   RPACOR =    1.200    partial core radius                                     
   POMASS =   16.000; ZVAL   =    6.000    mass and valenz                      
   RCORE  =    1.520    outmost cutoff radius                                   
   RWIGS  =    1.550; RWIGS  =    0.820    wigner-seitz radius (au A)           
   ENMAX  =  400.000; ENMIN  =  300.000 eV                                      
   ICORE  =        2    local potential                                         
   LCOR   =        T    correct aug charges                                     
   LPAW   =        T    paw PP                                                  
   EAUG   =  605.392                                                            
   DEXC   =    0.000                                                            
   RMAX   =    1.553    core radius for proj-oper                               
   RAUG   =    1.300    factor for augmentation sphere                          
   RDEP   =    1.550    radius for radial grids                                 
   RDEPT  =    1.329    core radius for aug-charge                              
                                                                                
   Atomic configuration                                                         
    4 entries                                                                   
     n  l   j            E        occ.                                          
     1  0  0.50      -514.6923   2.0000                                         
     2  0  0.50       -23.9615   2.0000                                         
     2  1  0.50        -9.0305   4.0000                                         
     3  2  1.50        -9.5241   0.0000                                         
   Description                                                                  
     l       E           TYP  RCUT    TYP  RCUT                                 
     0    -23.9615318     23  1.200                                             
     0     -9.5240782     23  1.200                                             
     1     -9.0304911     23  1.520                                             
     1      8.1634956     23  1.520                                             
     2     -9.5240782      7  1.500                                             
  local pseudopotential read in
  partial core-charges read in
  partial kinetic energy density read in
  kinetic energy density of atom read in
  atomic valenz-charges read in
  non local Contribution for L=           0  read in
    real space projection operators read in
  non local Contribution for L=           0  read in
    real space projection operators read in
  non local Contribution for L=           1  read in
    real space projection operators read in
  non local Contribution for L=           1  read in
    real space projection operators read in
    PAW grid and wavefunctions read in
 
   number of l-projection  operators is LMAX  =           4
   number of lm-projection operators is LMMAX =           8
 
 POTCAR:    PAW_PBE W 08Apr2002                   
   VRHFIN =W : 6s5d                                                             
   LEXCH  = PE                                                                  
   EATOM  =   204.6103 eV,   15.0384 Ry                                         
                                                                                
   TITEL  = PAW_PBE W 08Apr2002                                                 
   LULTRA =        F    use ultrasoft PP ?                                      
   IUNSCR =        1    unscreen: 0-lin 1-nonlin 2-no                           
   RPACOR =    2.330    partial core radius                                     
   POMASS =  183.850; ZVAL   =    6.000    mass and valenz                      
   RCORE  =    2.750    outmost cutoff radius                                   
   RWIGS  =    2.750; RWIGS  =    1.455    wigner-seitz radius (au A)           
   ENMAX  =  223.057; ENMIN  =  167.293 eV                                      
   RCLOC  =    2.147    cutoff for local pot                                    
   LCOR   =        T    correct aug charges                                     
   LPAW   =        T    paw PP                                                  
   EAUG   =  373.438                                                            
   DEXC   =    0.000                                                            
   RMAX   =    2.801    core radius for proj-oper                               
   RAUG   =    1.300    factor for augmentation sphere                          
   RDEP   =    2.886    radius for radial grids                                 
   RDEPT  =    2.230    core radius for aug-charge                              
                                                                                
   Atomic configuration                                                         
   16 entries                                                                   
     n  l   j            E        occ.                                          
     1  0  0.50    -69465.5836   2.0000                                         
     2  0  0.50    -11986.2642   2.0000                                         
     2  1  1.50    -10479.8616   6.0000                                         
     3  0  0.50     -2759.0758   2.0000                                         
     3  1  1.50     -2313.1857   6.0000                                         
     3  2  2.50     -1801.1185  10.0000                                         
     4  0  0.50      -567.6791   2.0000                                         
     4  1  1.50      -421.4694   6.0000                                         
     4  2  2.50      -236.3473  10.0000                                         
     4  3  3.50       -31.2666  14.0000                                         
     5  0  0.50       -77.1085   2.0000                                         
     5  1  1.50       -41.3856   6.0000                                         
     5  2  2.50        -3.3185   5.0000                                         
     6  0  0.50        -5.1438   1.0000                                         
     6  1  0.50        -3.8096   0.0000                                         
     5  3  2.50        -1.3606   0.0000                                         
   Description                                                                  
     l       E           TYP  RCUT    TYP  RCUT                                 
     2     -3.3185288     23  2.500                                             
     2     -1.5965414     23  2.500                                             
     0     -5.1438054     23  2.500                                             
     0      4.9117504     23  2.500                                             
     1      2.7211652     23  2.750                                             
     1     27.2116520     23  2.750                                             
  local pseudopotential read in
  partial core-charges read in
  partial kinetic energy density read in
  atomic valenz-charges read in
  non local Contribution for L=           2  read in
    real space projection operators read in
  non local Contribution for L=           2  read in
    real space projection operators read in
  non local Contribution for L=           0  read in
    real space projection operators read in
  non local Contribution for L=           0  read in
    real space projection operators read in
  non local Contribution for L=           1  read in
    real space projection operators read in
  non local Contribution for L=           1  read in
    real space projection operators read in
    PAW grid and wavefunctions read in
 
   number of l-projection  operators is LMAX  =           6
   number of lm-projection operators is LMMAX =          18
 
 POTCAR:    PAW_PBE Cu_pv 06Sep2000               
   VRHFIN =Cu: d10 p1                                                           
   LEXCH  = PE                                                                  
   EATOM  =  4120.1201 eV,  302.8203 Ry                                         
                                                                                
   TITEL  = PAW_PBE Cu_pv 06Sep2000                                             
   LULTRA =        F    use ultrasoft PP ?                                      
   IUNSCR =        1    unscreen: 0-lin 1-nonlin 2-no                           
   RPACOR =    1.500    partial core radius                                     
   POMASS =   63.546; ZVAL   =   17.000    mass and valenz                      
   RCORE  =    2.000    outmost cutoff radius                                   
   RWIGS  =    2.000; RWIGS  =    1.058    wigner-seitz radius (au A)           
   ENMAX  =  368.648; ENMIN  =  276.486 eV                                      
   RCLOC  =    1.304    cutoff for local pot                                    
   LCOR   =        T    correct aug charges                                     
   LPAW   =        T    paw PP                                                  
   EAUG   =  758.233                                                            
   DEXC   =    0.000                                                            
   RMAX   =    2.046    core radius for proj-oper                               
   RAUG   =    1.300    factor for augmentation sphere                          
   RDEP   =    2.025    radius for radial grids                                 
   RDEPT  =    1.558    core radius for aug-charge                              
                                                                                
   Atomic configuration                                                         
    8 entries                                                                   
     n  l   j            E        occ.                                          
     1  0  0.50     -8850.2467   2.0000                                         
     2  0  0.50     -1062.3498   2.0000                                         
     2  1  1.50      -916.8226   6.0000                                         
     3  0  0.50      -114.6929   2.0000                                         
     3  1  1.50       -72.1325   6.0000                                         
     3  2  2.50        -5.0394  10.0000                                         
     4  0  0.50        -4.6097   1.0000                                         
     4  3  2.50        -1.3606   0.0000                                         
   Description                                                                  
     l       E           TYP  RCUT    TYP  RCUT                                 
     1    -72.1324777     23  1.700                                             
     1     -1.3605826     23  1.700                                             
     2     -5.0393776     23  2.000                                             
     2     -6.3999602     23  2.000                                             
     0     -4.6097062     23  1.800                                             
     0     14.1620818     23  1.800                                             
  local pseudopotential read in
  partial core-charges read in
  partial kinetic energy density read in
  atomic valenz-charges read in
  non local Contribution for L=           1  read in
    real space projection operators read in
  non local Contribution for L=           1  read in
    real space projection operators read in
  non local Contribution for L=           2  read in
    real space projection operators read in
  non local Contribution for L=           2  read in
    real space projection operators read in
  non local Contribution for L=           0  read in
    real space projection operators read in
  non local Contribution for L=           0  read in
    real space projection operators read in
    PAW grid and wavefunctions read in
 
   number of l-projection  operators is LMAX  =           6
   number of lm-projection operators is LMMAX =          18
 
 Optimization of the real space projectors (new method)

 maximal supplied QI-value         = 18.90
 optimisation between [QCUT,QGAM] = [ 11.34, 22.87] = [ 36.00,146.41] Ry 
 Optimized for a Real-space Cutoff    1.35 Angstroem

   l    n(q)    QCUT    max X(q) W(low)/X(q) W(high)/X(q)  e(spline) 
   1      9    11.338     2.836    0.21E-04    0.44E-04    0.96E-07
   1      9    11.338     4.023    0.81E-04    0.11E-03    0.22E-06
   2      8    11.338    73.368    0.36E-03    0.40E-03    0.33E-06
   2      8    11.338    69.010    0.37E-03    0.41E-03    0.34E-06
   0      9    11.338    54.797    0.66E-04    0.74E-04    0.73E-07
   0      9    11.338    24.266    0.52E-04    0.65E-04    0.65E-07
 Optimization of the real space projectors (new method)

 maximal supplied QI-value         = 24.76
 optimisation between [QCUT,QGAM] = [ 11.39, 22.77] = [ 36.31,145.25] Ry 
 Optimized for a Real-space Cutoff    1.00 Angstroem

   l    n(q)    QCUT    max X(q) W(low)/X(q) W(high)/X(q)  e(spline) 
   0      7    11.387    20.381    0.39E-03    0.13E-02    0.15E-06
   0      7    11.387    15.268    0.42E-03    0.14E-02    0.17E-06
   1      6    11.387     5.964    0.41E-03    0.11E-02    0.17E-06
   1      6    11.387     5.382    0.39E-03    0.87E-03    0.15E-06
 Optimization of the real space projectors (new method)

 maximal supplied QI-value         = 13.61
 optimisation between [QCUT,QGAM] = [ 11.43, 22.86] = [ 36.58,146.31] Ry 
 Optimized for a Real-space Cutoff    1.56 Angstroem

   l    n(q)    QCUT    max X(q) W(low)/X(q) W(high)/X(q)  e(spline) 
   2     10    11.429   130.855    0.22E-03    0.64E-03    0.11E-05
   2     10    11.429   114.007    0.22E-03    0.64E-03    0.11E-05
   0     11    11.429    84.709    0.39E-04    0.67E-04    0.23E-06
   0     11    11.429    49.163    0.35E-04    0.62E-04    0.21E-06
   1     10    11.429    15.765    0.84E-04    0.15E-03    0.24E-06
   1     10    11.429    10.638    0.58E-04    0.12E-03    0.19E-06
 Optimization of the real space projectors (new method)

 maximal supplied QI-value         = 18.90
 optimisation between [QCUT,QGAM] = [ 11.34, 22.87] = [ 36.00,146.41] Ry 
 Optimized for a Real-space Cutoff    1.35 Angstroem

   l    n(q)    QCUT    max X(q) W(low)/X(q) W(high)/X(q)  e(spline) 
   1      9    11.338     3.172    0.27E-04    0.54E-04    0.11E-06
   1      9    11.338     4.083    0.75E-04    0.10E-03    0.21E-06
   2      8    11.338    65.342    0.34E-03    0.39E-03    0.31E-06
   2      8    11.338    61.381    0.35E-03    0.40E-03    0.31E-06
   0      9    11.338    65.742    0.63E-04    0.53E-04    0.82E-07
   0      9    11.338    30.431    0.56E-04    0.48E-04    0.75E-07
  PAW_PBE Ni_pv 06Sep2000               :
 energy of atom  1       EATOM=-3501.1230
 kinetic energy error for atom=    0.0690 (will be added to EATOM!!)
  PAW_PBE O 08Apr2002                   :
 energy of atom  2       EATOM= -432.3788
 kinetic energy error for atom=    0.0224 (will be added to EATOM!!)
  PAW_PBE W 08Apr2002                   :
 energy of atom  3       EATOM= -204.6103
 kinetic energy error for atom=    0.0017 (will be added to EATOM!!)
  PAW_PBE Cu_pv 06Sep2000               :
 energy of atom  4       EATOM=-4120.1201
 kinetic energy error for atom=    0.0655 (will be added to EATOM!!)
 
 
 POSCAR: Ni O4 W                                 
  positions in direct lattice
  velocities in cartesian coordinates
 exchange correlation table for  LEXCH =        8
   RHO(1)=    0.500       N(1)  =     2000
   RHO(2)=  100.500       N(2)  =     4000
 


--------------------------------------------------------------------------------------------------------


 ion  position               nearest neighbor table
   1  0.750  0.658  0.628-  30 1.95  37 1.95  34 2.01  22 2.01  14 2.07  26 2.08
   2  0.250  0.342  0.872-  24 1.95  31 1.95  16 2.01  36 2.01   8 2.07  28 2.08
   3  0.250  0.651  0.626-  35 1.97  28 1.98  24 2.01  12 2.01  20 2.05  32 2.05
   4  0.249  0.348  0.376-  32 1.98  27 1.99  23 1.99   7 1.99  15 2.07  35 2.08
   5  0.750  0.349  0.874-  33 1.97  26 1.98  30 2.01  10 2.01  18 2.05  38 2.05
   6  0.751  0.652  0.124-  38 1.98  29 1.99  25 1.99  13 1.99  21 2.07  33 2.08
   7  0.110  0.121  0.462-  40 1.96   4 1.99  43 2.12
   8  0.111  0.103  0.964-  39 1.96   2 2.07  44 2.07
   9  0.609  0.112  0.466-  42 1.91  48 2.03  45 2.10
  10  0.617  0.111  0.962-  41 1.96   5 2.01  46 2.10
  11  0.391  0.888  0.034-  46 1.91  47 2.03  41 2.10
  12  0.383  0.889  0.538-  45 1.96   3 2.01  42 2.10
  13  0.889  0.879  0.038-  44 1.96   6 1.99  39 2.12
  14  0.889  0.897  0.536-  43 1.96   1 2.07  40 2.07
  15  0.390  0.113  0.286-  41 1.94   4 2.07  45 2.11
  16  0.387  0.110  0.787-  42 1.95   2 2.01  46 2.10
  17  0.886  0.108  0.283-  39 1.91  48 2.05  43 2.10
  18  0.888  0.113  0.786-  40 1.93   5 2.05  44 2.13
  19  0.114  0.892  0.217-  43 1.91  47 2.05  39 2.10
  20  0.112  0.887  0.714-  44 1.93   3 2.05  40 2.13
  21  0.610  0.887  0.214-  45 1.94   6 2.07  41 2.11
  22  0.613  0.890  0.713-  46 1.95   1 2.01  42 2.10
  23  0.131  0.372  0.207-  39 1.83   4 1.99  47 2.12
  24  0.137  0.378  0.705-  40 1.87   2 1.95   3 2.01
  25  0.630  0.387  0.195-  41 1.83   6 1.99  48 2.10
  26  0.630  0.377  0.707-  42 1.84   5 1.98   1 2.08
  27  0.370  0.613  0.305-  45 1.83   4 1.99  47 2.10
  28  0.370  0.623  0.793-  46 1.84   3 1.98   2 2.08
  29  0.869  0.628  0.293-  43 1.83   6 1.99  48 2.12
  30  0.863  0.622  0.795-  44 1.87   1 1.95   5 2.01
  31  0.367  0.366  0.039-  41 1.83   2 1.95  47 2.16
  32  0.366  0.378  0.545-  42 1.85   4 1.98   3 2.05
  33  0.868  0.374  0.042-  39 1.85   5 1.97   6 2.08
  34  0.870  0.391  0.555-  40 1.82   1 2.01  48 2.09
  35  0.132  0.626  0.458-  43 1.85   3 1.97   4 2.08
  36  0.130  0.609  0.945-  44 1.82   2 2.01  47 2.09
  37  0.633  0.634  0.461-  45 1.83   1 1.95  48 2.16
  38  0.634  0.622  0.955-  46 1.85   6 1.98   5 2.05
  39  0.999  0.172  0.126-  23 1.83  33 1.85  17 1.91   8 1.96  19 2.10  13 2.12  43 3.13  44 3.19

  40  0.999  0.178  0.625-  34 1.82  24 1.87  18 1.93   7 1.96  14 2.07  20 2.13  44 3.18  43 3.19

  41  0.501  0.174  0.123-  25 1.83  31 1.83  15 1.94  10 1.96  11 2.10  21 2.11  46 3.16  45 3.19

  42  0.499  0.174  0.625-  26 1.84  32 1.85   9 1.91  16 1.95  22 2.10  12 2.10  46 3.16  45 3.16

  43  0.001  0.828  0.374-  29 1.83  35 1.85  19 1.91  14 1.96  17 2.10   7 2.12  39 3.13  40 3.19

  44  0.001  0.822  0.875-  36 1.82  30 1.87  20 1.93  13 1.96   8 2.07  18 2.13  40 3.18  39 3.19

  45  0.499  0.825  0.377-  27 1.83  37 1.83  21 1.94  12 1.96   9 2.10  15 2.11  42 3.16  41 3.19

  46  0.501  0.826  0.875-  28 1.84  38 1.85  11 1.91  22 1.95  16 2.10  10 2.10  42 3.16  41 3.16

  47  0.251  0.659  0.124-  11 2.03  19 2.05  36 2.09  27 2.10  23 2.12  31 2.16
  48  0.749  0.341  0.376-   9 2.03  17 2.05  34 2.09  25 2.10  29 2.12  37 2.16
 

IMPORTANT INFORMATION: All symmetrisations will be switched off!
NOSYMM: (Re-)initialisation of all symmetry stuff for point group C_1.

 
 
 KPOINTS: Automatic mesh                          

Automatic generation of k-mesh.
Space group operators:
 irot       det(A)        alpha          n_x          n_y          n_z        tau_x        tau_y        tau_z
    1     1.000000     0.000000     1.000000     0.000000     0.000000     0.000000     0.000000     0.000000
 
 Subroutine IBZKPT returns following result:
 ===========================================
 
 Found     68 irreducible k-points:
 
 Following reciprocal coordinates:
            Coordinates               Weight
  0.000000  0.000000  0.000000      1.000000
  0.250000 -0.000000  0.000000      2.000000
  0.500000 -0.000000  0.000000      1.000000
  0.000000  0.125000  0.000000      2.000000
  0.250000  0.125000 -0.000000      2.000000
  0.500000  0.125000  0.000000      2.000000
 -0.250000  0.125000  0.000000      2.000000
  0.000000  0.250000  0.000000      2.000000
  0.250000  0.250000  0.000000      2.000000
  0.500000  0.250000 -0.000000      2.000000
 -0.250000  0.250000  0.000000      2.000000
  0.000000  0.375000  0.000000      2.000000
  0.250000  0.375000  0.000000      2.000000
  0.500000  0.375000  0.000000      2.000000
 -0.250000  0.375000  0.000000      2.000000
  0.000000  0.500000  0.000000      1.000000
  0.250000  0.500000  0.000000      2.000000
  0.500000  0.500000  0.000000      1.000000
  0.000000  0.000000  0.250000      2.000000
  0.250000  0.000000  0.250000      2.000000
  0.500000  0.000000  0.250000      2.000000
 -0.250000  0.000000  0.250000      2.000000
  0.000000  0.125000  0.250000      2.000000
  0.250000  0.125000  0.250000      2.000000
  0.500000  0.125000  0.250000      2.000000
 -0.250000  0.125000  0.250000      2.000000
  0.000000  0.250000  0.250000      2.000000
  0.250000  0.250000  0.250000      2.000000
  0.500000  0.250000  0.250000      2.000000
 -0.250000  0.250000  0.250000      2.000000
 -0.000000  0.375000  0.250000      2.000000
  0.250000  0.375000  0.250000      2.000000
  0.500000  0.375000  0.250000      2.000000
 -0.250000  0.375000  0.250000      2.000000
  0.000000  0.500000  0.250000      2.000000
  0.250000  0.500000  0.250000      2.000000
  0.500000  0.500000  0.250000      2.000000
 -0.250000  0.500000  0.250000      2.000000
  0.000000 -0.375000  0.250000      2.000000
  0.250000 -0.375000  0.250000      2.000000
  0.500000 -0.375000  0.250000      2.000000
 -0.250000 -0.375000  0.250000      2.000000
 -0.000000 -0.250000  0.250000      2.000000
  0.250000 -0.250000  0.250000      2.000000
  0.500000 -0.250000  0.250000      2.000000
 -0.250000 -0.250000  0.250000      2.000000
 -0.000000 -0.125000  0.250000      2.000000
  0.250000 -0.125000  0.250000      2.000000
  0.500000 -0.125000  0.250000      2.000000
 -0.250000 -0.125000  0.250000      2.000000
  0.000000  0.000000  0.500000      1.000000
  0.250000  0.000000  0.500000      2.000000
  0.500000  0.000000  0.500000      1.000000
  0.000000  0.125000  0.500000      2.000000
  0.250000  0.125000  0.500000      2.000000
  0.500000  0.125000  0.500000      2.000000
 -0.250000  0.125000  0.500000      2.000000
  0.000000  0.250000  0.500000      2.000000
  0.250000  0.250000  0.500000      2.000000
  0.500000  0.250000  0.500000      2.000000
 -0.250000  0.250000  0.500000      2.000000
  0.000000  0.375000  0.500000      2.000000
  0.250000  0.375000  0.500000      2.000000
  0.500000  0.375000  0.500000      2.000000
 -0.250000  0.375000  0.500000      2.000000
  0.000000  0.500000  0.500000      1.000000
  0.250000  0.500000  0.500000      2.000000
  0.500000  0.500000  0.500000      1.000000
 
 Following cartesian coordinates:
            Coordinates               Weight
  0.000000  0.000000  0.000000      1.000000
  0.027392  0.000068  0.000190      2.000000
  0.054784  0.000135  0.000381      1.000000
  0.000055  0.022056 -0.000052      2.000000
  0.027446  0.022124  0.000139      2.000000
  0.054838  0.022191  0.000329      2.000000
 -0.027337  0.021989 -0.000242      2.000000
  0.000109  0.044113 -0.000103      2.000000
  0.027501  0.044180  0.000087      2.000000
  0.054893  0.044248  0.000278      2.000000
 -0.027283  0.044045 -0.000293      2.000000
  0.000164  0.066169 -0.000155      2.000000
  0.027555  0.066237  0.000036      2.000000
  0.054947  0.066304  0.000226      2.000000
 -0.027228  0.066102 -0.000345      2.000000
  0.000218  0.088225 -0.000206      1.000000
  0.027610  0.088293 -0.000016      2.000000
  0.055002  0.088360  0.000175      1.000000
  0.000147 -0.000059  0.025230      2.000000
  0.027539  0.000009  0.025421      2.000000
  0.054931  0.000076  0.025611      2.000000
 -0.027245 -0.000126  0.025040      2.000000
  0.000202  0.021998  0.025179      2.000000
  0.027594  0.022065  0.025369      2.000000
  0.054986  0.022133  0.025560      2.000000
 -0.027190  0.021930  0.024988      2.000000
  0.000256  0.044054  0.025127      2.000000
  0.027648  0.044122  0.025318      2.000000
  0.055040  0.044189  0.025508      2.000000
 -0.027136  0.043987  0.024937      2.000000
  0.000311  0.066110  0.025076      2.000000
  0.027703  0.066178  0.025266      2.000000
  0.055095  0.066245  0.025457      2.000000
 -0.027081  0.066043  0.024885      2.000000
  0.000365  0.088167  0.025024      2.000000
  0.027757  0.088234  0.025215      2.000000
  0.055149  0.088302  0.025405      2.000000
 -0.027027  0.088099  0.024834      2.000000
 -0.000016 -0.066228  0.025385      2.000000
  0.027376 -0.066160  0.025575      2.000000
  0.054768 -0.066093  0.025766      2.000000
 -0.027408 -0.066295  0.025194      2.000000
  0.000038 -0.044171  0.025333      2.000000
  0.027430 -0.044104  0.025524      2.000000
  0.054822 -0.044036  0.025714      2.000000
 -0.027354 -0.044239  0.025143      2.000000
  0.000093 -0.022115  0.025282      2.000000
  0.027485 -0.022047  0.025472      2.000000
  0.054877 -0.021980  0.025663      2.000000
 -0.027299 -0.022183  0.025091      2.000000
  0.000294 -0.000117  0.050461      1.000000
  0.027686 -0.000050  0.050651      2.000000
  0.055078  0.000018  0.050842      1.000000
  0.000349  0.021939  0.050409      2.000000
  0.027741  0.022007  0.050600      2.000000
  0.055133  0.022074  0.050790      2.000000
 -0.027043  0.021872  0.050219      2.000000
  0.000403  0.043995  0.050358      2.000000
  0.027795  0.044063  0.050548      2.000000
  0.055187  0.044130  0.050738      2.000000
 -0.026988  0.043928  0.050167      2.000000
  0.000458  0.066052  0.050306      2.000000
  0.027850  0.066119  0.050497      2.000000
  0.055242  0.066187  0.050687      2.000000
 -0.026934  0.065984  0.050116      2.000000
  0.000512  0.088108  0.050255      1.000000
  0.027904  0.088176  0.050445      2.000000
  0.055296  0.088243  0.050635      1.000000
 
 TETIRR: Found    384 inequivalent tetrahedra from      768


--------------------------------------------------------------------------------------------------------




 Dimension of arrays:
   k-points           NKPTS =     68   k-points in BZ     NKDIM =     68   number of bands    NBANDS=    224
   number of dos      NEDOS =   2001   number of ions     NIONS =     48
   non local maximal  LDIM  =      6   non local SUM 2l+1 LMDIM =     18
   total plane-waves  NPLWV =  86400
   max r-space proj   IRMAX =   2752   max aug-charges    IRDMAX=   9820
   dimension x,y,z NGX =    50 NGY =   32 NGZ =   54
   dimension x,y,z NGXF=   100 NGYF=   64 NGZF=  108
   support grid    NGXF=   100 NGYF=   64 NGZF=  108
   ions per type =               6  32   8   2
   NGX,Y,Z   is equivalent  to a cutoff of   9.11,  9.39,  9.06 a.u.
   NGXF,Y,Z  is equivalent  to a cutoff of  18.21, 18.77, 18.12 a.u.

 SYSTEM =  NiWO4                                   
 POSCAR =  Ni O4 W                                 

 Startparameter for this run:
   NWRITE =      2    write-flag & timer
   PREC   = normal    normal or accurate (medium, high low for compatibility)
   ISTART =      0    job   : 0-new  1-cont  2-samecut
   ICHARG =      2    charge: 1-file 2-atom 10-const
   ISPIN  =      1    spin polarized calculation?
   LNONCOLLINEAR =      F non collinear calculations
   LSORBIT =      F    spin-orbit coupling
   INIWAV =      1    electr: 0-lowe 1-rand  2-diag
   LASPH  =      F    aspherical Exc in radial PAW
   METAGGA=      F    non-selfconsistent MetaGGA calc.

 Electronic Relaxation 1
   ENCUT  =  500.0 eV  36.75 Ry    6.06 a.u.  16.64 10.33 18.07*2*pi/ulx,y,z
   ENINI  =  500.0     initial cutoff
   ENAUG  =  758.2 eV  augmentation charge cutoff
   NELM   =    400;   NELMIN=  2; NELMDL= -5     # of ELM steps 
   EDIFF  = 0.1E-04   stopping-criterion for ELM
   LREAL  =      T    real-space projection
   NLSPLINE    = F    spline interpolate recip. space projectors
   LCOMPAT=      F    compatible to vasp.4.4
   GGA_COMPAT  = T    GGA compatible to vasp.4.4-vasp.4.6
   LMAXPAW     = -100 max onsite density
   LMAXMIX     =    4 max onsite mixed and CHGCAR
   VOSKOWN=      0    Vosko Wilk Nusair interpolation
   ROPT   =   -0.00050  -0.00050  -0.00050  -0.00050
 Ionic relaxation
   EDIFFG = 0.1E-03   stopping-criterion for IOM
   NSW    =      0    number of steps for IOM
   NBLOCK =      1;   KBLOCK =      1    inner block; outer block 
   IBRION =     -1    ionic relax: 0-MD 1-quasi-New 2-CG
   NFREE  =      0    steps in history (QN), initial steepest desc. (CG)
   ISIF   =      2    stress and relaxation
   IWAVPR =     10    prediction:  0-non 1-charg 2-wave 3-comb
   ISYM   =      0    0-nonsym 1-usesym 2-fastsym
   LCORR  =      T    Harris-Foulkes like correction to forces

   POTIM  = 0.5000    time-step for ionic-motion
   TEIN   =    0.0    initial temperature
   TEBEG  =    0.0;   TEEND  =   0.0 temperature during run
   SMASS  =  -3.00    Nose mass-parameter (am)
   estimated Nose-frequenzy (Omega)   =  0.10E-29 period in steps =****** mass=  -0.190E-26a.u.
   SCALEE = 1.0000    scale energy and forces
   NPACO  =    256;   APACO  = 16.0  distance and # of slots for P.C.
   PSTRESS=    0.0 pullay stress

  Mass of Ions in am
   POMASS =  58.69 16.00183.85 63.55
  Ionic Valenz
   ZVAL   =  16.00  6.00  6.00 17.00
  Atomic Wigner-Seitz radii
   RWIGS  =  -1.00 -1.00 -1.00 -1.00
  virtual crystal weights 
   VCA    =   1.00  1.00  1.00  1.00
   NELECT =     370.0000    total number of electrons
   NUPDOWN=      -1.0000    fix difference up-down

 DOS related values:
   EMIN   =  10.00;   EMAX   =-10.00  energy-range for DOS
   EFERMI =   0.00
   ISMEAR =    -5;   SIGMA  =   0.10  broadening in eV -4-tet -1-fermi 0-gaus

 Electronic relaxation 2 (details)
   IALGO  =     38    algorithm
   LDIAG  =      T    sub-space diagonalisation (order eigenvalues)
   LSUBROT=      F    optimize rotation matrix (better conditioning)
   TURBO    =      0    0=normal 1=particle mesh
   IRESTART =      0    0=no restart 2=restart with 2 vectors
   NREBOOT  =      0    no. of reboots
   NMIN     =      0    reboot dimension
   EREF     =   0.00    reference energy to select bands
   IMIX   =      4    mixing-type and parameters
     AMIX     =   0.40;   BMIX     =  1.00
     AMIX_MAG =   1.60;   BMIX_MAG =  1.00
     AMIN     =   0.10
     WC   =   100.;   INIMIX=   1;  MIXPRE=   1;  MAXMIX= -45

 Intra band minimization:
   WEIMIN = 0.0000     energy-eigenvalue tresh-hold
   EBREAK =  0.11E-07  absolut break condition
   DEPER  =   0.30     relativ break condition  

   TIME   =   0.40     timestep for ELM

  volume/ion in A,a.u.               =      10.68        72.06
  Fermi-wavevector in a.u.,A,eV,Ry     =   1.468579  2.775212 29.344011  2.156724
  Thomas-Fermi vector in A             =   2.584060
 
 Write flags
   LWAVE        =      T    write WAVECAR
   LDOWNSAMPLE  =      F    k-point downsampling of WAVECAR
   LCHARG       =      T    write CHGCAR
   LVTOT        =      F    write LOCPOT, total local potential
   LVHAR        =      F    write LOCPOT, Hartree potential only
   LELF         =      F    write electronic localiz. function (ELF)
   LORBIT       =     11    0 simple, 1 ext, 2 COOP (PROOUT), +10 PAW based schemes


 Dipole corrections
   LMONO  =      F    monopole corrections only (constant potential shift)
   LDIPOL =      F    correct potential (dipole corrections)
   IDIPOL =      0    1-x, 2-y, 3-z, 4-all directions 
   EPSILON=  1.0000000 bulk dielectric constant

 Exchange correlation treatment:
   GGA     =    PE    GGA type
   LEXCH   =     8    internal setting for exchange type
   VOSKOWN=      0    Vosko Wilk Nusair interpolation
   LHFCALC =     F    Hartree Fock is set to
   LHFONE  =     F    Hartree Fock one center treatment
   AEXX    =    0.0000 exact exchange contribution

 Linear response parameters
   LEPSILON=     F    determine dielectric tensor
   LRPA    =     F    only Hartree local field effects (RPA)
   LNABLA  =     F    use nabla operator in PAW spheres
   LVEL    =     F    velocity operator in full k-point grid
   LINTERFAST=   F  fast interpolation
   KINTER  =     0    interpolate to denser k-point grid
   CSHIFT  =0.1000    complex shift for real part using Kramers Kronig
   OMEGAMAX=  -1.0    maximum frequency
   DEG_THRESHOLD= 0.2000000E-02 threshold for treating states as degnerate
   RTIME   =   -0.100 relaxation time in fs
  (WPLASMAI=    0.000 imaginary part of plasma frequency in eV, 0.658/RTIME)
   DFIELD  = 0.0000000 0.0000000 0.0000000 field for delta impulse in time
 
 Orbital magnetization related:
   ORBITALMAG=     F  switch on orbital magnetization
   LCHIMAG   =     F  perturbation theory with respect to B field
   DQ        =  0.001000  dq finite difference perturbation B field
   LLRAUG    =     F  two centre corrections for induced B field



--------------------------------------------------------------------------------------------------------


 Static calculation
 charge density and potential will be updated during run
 non-spin polarized calculation
 Variant of blocked Davidson
 Davidson routine will perform the subspace rotation
 perform sub-space diagonalisation
    after iterative eigenvector-optimisation
 modified Broyden-mixing scheme, WC =      100.0
 initial mixing is a Kerker type mixing with AMIX =  0.4000 and BMIX =      1.0000
 Hartree-type preconditioning will be used
 using additional bands           39
 real space projection scheme for non local part
 use partial core corrections
 calculate Harris-corrections to forces 
   (improved forces if not selfconsistent)
 use gradient corrections 
 use of overlap-Matrix (Vanderbilt PP)
 Fermi weights with tetrahedron method with Bloechl corrections


--------------------------------------------------------------------------------------------------------


  energy-cutoff  :      500.00
  volume of cell :      512.55
      direct lattice vectors                 reciprocal lattice vectors
     9.127206464 -0.022682987 -0.053310717     0.109567669  0.000270015  0.000761826
    -0.014058669  5.667370916  0.013258478     0.000436109  0.176450705 -0.000412144
    -0.068956124  0.023315742  9.909176282     0.000588883 -0.000234638  0.100921212

  length of vectors
     9.127390338  5.667403862  9.909443636     0.109570650  0.176451726  0.100923203


 
 k-points in units of 2pi/SCALE and weight: Automatic mesh                          
   0.00000000  0.00000000  0.00000000       0.008
   0.02739192  0.00006750  0.00019046       0.016
   0.05478383  0.00013501  0.00038091       0.008
   0.00005451  0.02205634 -0.00005152       0.016
   0.02744643  0.02212384  0.00013894       0.016
   0.05483835  0.02219135  0.00032939       0.016
  -0.02733740  0.02198883 -0.00024197       0.016
   0.00010903  0.04411268 -0.00010304       0.016
   0.02750094  0.04418018  0.00008742       0.016
   0.05489286  0.04424768  0.00027788       0.016
  -0.02728289  0.04404517 -0.00029349       0.016
   0.00016354  0.06616901 -0.00015455       0.016
   0.02755546  0.06623652  0.00003590       0.016
   0.05494738  0.06630402  0.00022636       0.016
  -0.02722838  0.06610151 -0.00034501       0.016
   0.00021805  0.08822535 -0.00020607       0.008
   0.02760997  0.08829286 -0.00001562       0.016
   0.05500189  0.08836036  0.00017484       0.008
   0.00014722 -0.00005866  0.02523030       0.016
   0.02753914  0.00000884  0.02542076       0.016
   0.05493106  0.00007635  0.02561122       0.016
  -0.02724470 -0.00012616  0.02503985       0.016
   0.00020173  0.02199768  0.02517878       0.016
   0.02759365  0.02206518  0.02536924       0.016
   0.05498557  0.02213269  0.02555970       0.016
  -0.02719018  0.02193017  0.02498833       0.016
   0.00025625  0.04405402  0.02512727       0.016
   0.02764817  0.04412152  0.02531772       0.016
   0.05504008  0.04418902  0.02550818       0.016
  -0.02713567  0.04398651  0.02493681       0.016
   0.00031076  0.06611035  0.02507575       0.016
   0.02770268  0.06617786  0.02526621       0.016
   0.05509460  0.06624536  0.02545666       0.016
  -0.02708116  0.06604285  0.02488529       0.016
   0.00036528  0.08816669  0.02502423       0.016
   0.02775719  0.08823420  0.02521469       0.016
   0.05514911  0.08830170  0.02540514       0.016
  -0.02702664  0.08809919  0.02483377       0.016
  -0.00001632 -0.06622767  0.02538486       0.016
   0.02737560 -0.06616017  0.02557531       0.016
   0.05476751 -0.06609267  0.02576577       0.016
  -0.02740824 -0.06629518  0.02519440       0.016
   0.00003819 -0.04417134  0.02533334       0.016
   0.02743011 -0.04410383  0.02552380       0.016
   0.05482203 -0.04403633  0.02571425       0.016
  -0.02735372 -0.04423884  0.02514288       0.016
   0.00009271 -0.02211500  0.02528182       0.016
   0.02748462 -0.02204749  0.02547228       0.016
   0.05487654 -0.02197999  0.02566273       0.016
  -0.02729921 -0.02218250  0.02509136       0.016
   0.00029444 -0.00011732  0.05046061       0.008
   0.02768636 -0.00004982  0.05065106       0.016
   0.05507828  0.00001769  0.05084152       0.008
   0.00034896  0.02193902  0.05040909       0.016
   0.02774087  0.02200652  0.05059954       0.016
   0.05513279  0.02207403  0.05079000       0.016
  -0.02704296  0.02187152  0.05021863       0.016
   0.00040347  0.04399536  0.05035757       0.016
   0.02779539  0.04406286  0.05054803       0.016
   0.05518730  0.04413036  0.05073848       0.016
  -0.02698845  0.04392785  0.05016711       0.016
   0.00045798  0.06605170  0.05030605       0.016
   0.02784990  0.06611920  0.05049651       0.016
   0.05524182  0.06618670  0.05068696       0.016
  -0.02693393  0.06598419  0.05011560       0.016
   0.00051250  0.08810803  0.05025453       0.008
   0.02790441  0.08817554  0.05044499       0.016
   0.05529633  0.08824304  0.05063545       0.008
 
 k-points in reciprocal lattice and weights: Automatic mesh                          
   0.00000000  0.00000000  0.00000000       0.008
   0.25000000 -0.00000000  0.00000000       0.016
   0.50000000 -0.00000000  0.00000000       0.008
   0.00000000  0.12500000  0.00000000       0.016
   0.25000000  0.12500000 -0.00000000       0.016
   0.50000000  0.12500000  0.00000000       0.016
  -0.25000000  0.12500000  0.00000000       0.016
   0.00000000  0.25000000  0.00000000       0.016
   0.25000000  0.25000000  0.00000000       0.016
   0.50000000  0.25000000 -0.00000000       0.016
  -0.25000000  0.25000000  0.00000000       0.016
   0.00000000  0.37500000  0.00000000       0.016
   0.25000000  0.37500000  0.00000000       0.016
   0.50000000  0.37500000  0.00000000       0.016
  -0.25000000  0.37500000  0.00000000       0.016
   0.00000000  0.50000000  0.00000000       0.008
   0.25000000  0.50000000  0.00000000       0.016
   0.50000000  0.50000000  0.00000000       0.008
   0.00000000  0.00000000  0.25000000       0.016
   0.25000000  0.00000000  0.25000000       0.016
   0.50000000  0.00000000  0.25000000       0.016
  -0.25000000  0.00000000  0.25000000       0.016
   0.00000000  0.12500000  0.25000000       0.016
   0.25000000  0.12500000  0.25000000       0.016
   0.50000000  0.12500000  0.25000000       0.016
  -0.25000000  0.12500000  0.25000000       0.016
   0.00000000  0.25000000  0.25000000       0.016
   0.25000000  0.25000000  0.25000000       0.016
   0.50000000  0.25000000  0.25000000       0.016
  -0.25000000  0.25000000  0.25000000       0.016
  -0.00000000  0.37500000  0.25000000       0.016
   0.25000000  0.37500000  0.25000000       0.016
   0.50000000  0.37500000  0.25000000       0.016
  -0.25000000  0.37500000  0.25000000       0.016
   0.00000000  0.50000000  0.25000000       0.016
   0.25000000  0.50000000  0.25000000       0.016
   0.50000000  0.50000000  0.25000000       0.016
  -0.25000000  0.50000000  0.25000000       0.016
   0.00000000 -0.37500000  0.25000000       0.016
   0.25000000 -0.37500000  0.25000000       0.016
   0.50000000 -0.37500000  0.25000000       0.016
  -0.25000000 -0.37500000  0.25000000       0.016
  -0.00000000 -0.25000000  0.25000000       0.016
   0.25000000 -0.25000000  0.25000000       0.016
   0.50000000 -0.25000000  0.25000000       0.016
  -0.25000000 -0.25000000  0.25000000       0.016
  -0.00000000 -0.12500000  0.25000000       0.016
   0.25000000 -0.12500000  0.25000000       0.016
   0.50000000 -0.12500000  0.25000000       0.016
  -0.25000000 -0.12500000  0.25000000       0.016
   0.00000000  0.00000000  0.50000000       0.008
   0.25000000  0.00000000  0.50000000       0.016
   0.50000000  0.00000000  0.50000000       0.008
   0.00000000  0.12500000  0.50000000       0.016
   0.25000000  0.12500000  0.50000000       0.016
   0.50000000  0.12500000  0.50000000       0.016
  -0.25000000  0.12500000  0.50000000       0.016
   0.00000000  0.25000000  0.50000000       0.016
   0.25000000  0.25000000  0.50000000       0.016
   0.50000000  0.25000000  0.50000000       0.016
  -0.25000000  0.25000000  0.50000000       0.016
   0.00000000  0.37500000  0.50000000       0.016
   0.25000000  0.37500000  0.50000000       0.016
   0.50000000  0.37500000  0.50000000       0.016
  -0.25000000  0.37500000  0.50000000       0.016
   0.00000000  0.50000000  0.50000000       0.008
   0.25000000  0.50000000  0.50000000       0.016
   0.50000000  0.50000000  0.50000000       0.008
 
 position of ions in fractional coordinates (direct lattice) 
   0.74989963  0.65779622  0.62751395
   0.25014350  0.34215997  0.87248331
   0.24993560  0.65073398  0.62572063
   0.24923730  0.34781618  0.37649426
   0.75009656  0.34926934  0.87425696
   0.75072809  0.65218953  0.12352823
   0.11048720  0.12130530  0.46184078
   0.11089999  0.10265557  0.96379557
   0.60865907  0.11228106  0.46622037
   0.61653541  0.11125116  0.96188608
   0.39135092  0.88771821  0.03377493
   0.38346353  0.88874336  0.53812602
   0.88949979  0.87876353  0.03814563
   0.88913510  0.89739235  0.53621062
   0.38974319  0.11321688  0.28559424
   0.38652118  0.10991403  0.78713963
   0.88583742  0.10764878  0.28253168
   0.88781978  0.11300085  0.78620757
   0.11412687  0.89235314  0.21743028
   0.11221403  0.88700633  0.71378427
   0.61026829  0.88668402  0.21438012
   0.61349889  0.89002653  0.71285815
   0.13089079  0.37234769  0.20689071
   0.13737225  0.37812157  0.70490370
   0.63017843  0.38722858  0.19546271
   0.63031149  0.37707407  0.70694951
   0.36960196  0.61289523  0.30470812
   0.36968212  0.62291541  0.79303960
   0.86908391  0.62762988  0.29312964
   0.86279916  0.62173737  0.79500130
   0.36678830  0.36598551  0.03854288
   0.36577088  0.37765869  0.54501906
   0.86796125  0.37431314  0.04214166
   0.86992819  0.39125099  0.55463077
   0.13198720  0.62583162  0.45789655
   0.13009128  0.60874236  0.94538219
   0.63321191  0.63401499  0.46145686
   0.63423584  0.62232534  0.95493733
   0.99908205  0.17184639  0.12602284
   0.99861406  0.17803794  0.62542989
   0.50050215  0.17449233  0.12308833
   0.49887194  0.17358755  0.62502650
   0.00089566  0.82819264  0.37395001
   0.00141892  0.82195635  0.87457409
   0.49949396  0.82549085  0.37690904
   0.50113051  0.82639633  0.87496480
   0.25050711  0.65924415  0.12398317
   0.74949322  0.34076054  0.37603554
 
 position of ions in cartesian coordinates  (Angst):
   6.79197007  3.72559614  6.18689002
   2.21813802  1.95381607  8.63679212
   2.22891810  3.69687071  6.19567952
   2.24398884  1.97432808  3.72207249
   6.78109050  1.98280841  8.62780888
   6.83436330  3.68205140  1.19268820
   0.97488730  0.69574410  4.57217989
   0.94430431  0.60174325  9.54586912
   5.52162975  0.63340251  4.58890046
   5.55935397  0.63894384  9.50010577
   3.55713148  5.02293884  0.32558835
   3.45034921  5.04068695  5.32372623
   8.10366365  4.96099177  0.34222299
   8.06572849  5.07818919  5.27790314
   3.53598138  0.63946035  2.81072725
   3.47203527  0.63250885  7.78075697
   8.06422530  0.59657956  2.75385885
   8.04751193  0.63861035  7.74483733
   1.01412108  5.05977702  2.16030203
   0.96251067  5.04109095  7.07879232
   5.54279622  5.01632297  2.10355263
   5.53786248  5.04681531  7.04293138
   1.17516613  2.11208727  2.04807535
   1.19990156  2.15627453  6.98270491
   5.73284639  2.18483102  1.90841328
   5.69893346  2.13920430  6.97668441
   3.34380537  3.47222540  3.00782875
   3.31072273  3.54039750  7.84692006
   7.90327158  3.54413246  2.86666324
   7.81138507  3.52258144  7.84005487
   3.33994949  2.06675445  0.36722686
   3.29557457  2.14474263  5.38619766
   7.91389331  2.10266601  0.37628029
   7.89626857  2.21056356  5.45474495
   1.16430126  3.55450223  4.53863884
   1.11362196  3.46906018  9.36909450
   5.73872217  3.58959419  4.54730645
   5.71420362  3.53482726  9.43708181
   9.10772220  0.95419338  1.19779919
   9.06892647  1.00093785  6.14661871
   4.55724560  0.98042975  1.19533537
   4.50776740  0.98704206  6.16920405
  -0.02925455  4.70237349  3.71646938
  -0.05891209  4.67869069  8.67713107
   4.52138900  4.67582075  3.71917447
   4.50196943  4.69252782  8.65442161
   2.26861263  3.73338963  1.22395698
   6.81005878  1.92298319  3.69076439
 


--------------------------------------------------------------------------------------------------------


 k-point  1 :   0.0000 0.0000 0.0000  plane waves:   13023
 k-point  2 :   0.2500-0.0000 0.0000  plane waves:   13016
 k-point  3 :   0.5000-0.0000 0.0000  plane waves:   12988
 k-point  4 :   0.0000 0.1250 0.0000  plane waves:   13022
 k-point  5 :   0.2500 0.1250-0.0000  plane waves:   13007
 k-point  6 :   0.5000 0.1250 0.0000  plane waves:   13008
 k-point  7 :  -0.2500 0.1250 0.0000  plane waves:   13018
 k-point  8 :   0.0000 0.2500 0.0000  plane waves:   13005
 k-point  9 :   0.2500 0.2500 0.0000  plane waves:   12991
 k-point 10 :   0.5000 0.2500-0.0000  plane waves:   12991
 k-point 11 :  -0.2500 0.2500 0.0000  plane waves:   13006
 k-point 12 :   0.0000 0.3750 0.0000  plane waves:   13024
 k-point 13 :   0.2500 0.3750 0.0000  plane waves:   12999
 k-point 14 :   0.5000 0.3750 0.0000  plane waves:   12999
 k-point 15 :  -0.2500 0.3750 0.0000  plane waves:   13006
 k-point 16 :   0.0000 0.5000 0.0000  plane waves:   12986
 k-point 17 :   0.2500 0.5000 0.0000  plane waves:   13002
 k-point 18 :   0.5000 0.5000 0.0000  plane waves:   13012
 k-point 19 :   0.0000 0.0000 0.2500  plane waves:   13039
 k-point 20 :   0.2500 0.0000 0.2500  plane waves:   13011
 k-point 21 :   0.5000 0.0000 0.2500  plane waves:   13011
 k-point 22 :  -0.2500 0.0000 0.2500  plane waves:   13035
 k-point 23 :   0.0000 0.1250 0.2500  plane waves:   13018
 k-point 24 :   0.2500 0.1250 0.2500  plane waves:   13020
 k-point 25 :   0.5000 0.1250 0.2500  plane waves:   13003
 k-point 26 :  -0.2500 0.1250 0.2500  plane waves:   13033
 k-point 27 :   0.0000 0.2500 0.2500  plane waves:   13019
 k-point 28 :   0.2500 0.2500 0.2500  plane waves:   13008
 k-point 29 :   0.5000 0.2500 0.2500  plane waves:   13009
 k-point 30 :  -0.2500 0.2500 0.2500  plane waves:   13029
 k-point 31 :  -0.0000 0.3750 0.2500  plane waves:   13016
 k-point 32 :   0.2500 0.3750 0.2500  plane waves:   13013
 k-point 33 :   0.5000 0.3750 0.2500  plane waves:   13008
 k-point 34 :  -0.2500 0.3750 0.2500  plane waves:   13000
 k-point 35 :   0.0000 0.5000 0.2500  plane waves:   13015
 k-point 36 :   0.2500 0.5000 0.2500  plane waves:   13016
 k-point 37 :   0.5000 0.5000 0.2500  plane waves:   13007
 k-point 38 :  -0.2500 0.5000 0.2500  plane waves:   13002
 k-point 39 :   0.0000-0.3750 0.2500  plane waves:   13002
 k-point 40 :   0.2500-0.3750 0.2500  plane waves:   13004
 k-point 41 :   0.5000-0.3750 0.2500  plane waves:   13010
 k-point 42 :  -0.2500-0.3750 0.2500  plane waves:   12987
 k-point 43 :  -0.0000-0.2500 0.2500  plane waves:   13025
 k-point 44 :   0.2500-0.2500 0.2500  plane waves:   13014
 k-point 45 :   0.5000-0.2500 0.2500  plane waves:   13004
 k-point 46 :  -0.2500-0.2500 0.2500  plane waves:   13013
 k-point 47 :  -0.0000-0.1250 0.2500  plane waves:   13037
 k-point 48 :   0.2500-0.1250 0.2500  plane waves:   13016
 k-point 49 :   0.5000-0.1250 0.2500  plane waves:   12997
 k-point 50 :  -0.2500-0.1250 0.2500  plane waves:   13014
 k-point 51 :   0.0000 0.0000 0.5000  plane waves:   13034
 k-point 52 :   0.2500 0.0000 0.5000  plane waves:   13031
 k-point 53 :   0.5000 0.0000 0.5000  plane waves:   13024
 k-point 54 :   0.0000 0.1250 0.5000  plane waves:   13019
 k-point 55 :   0.2500 0.1250 0.5000  plane waves:   13027
 k-point 56 :   0.5000 0.1250 0.5000  plane waves:   13025
 k-point 57 :  -0.2500 0.1250 0.5000  plane waves:   13024
 k-point 58 :   0.0000 0.2500 0.5000  plane waves:   13006
 k-point 59 :   0.2500 0.2500 0.5000  plane waves:   13019
 k-point 60 :   0.5000 0.2500 0.5000  plane waves:   13031
 k-point 61 :  -0.2500 0.2500 0.5000  plane waves:   13018
 k-point 62 :   0.0000 0.3750 0.5000  plane waves:   13003
 k-point 63 :   0.2500 0.3750 0.5000  plane waves:   13006
 k-point 64 :   0.5000 0.3750 0.5000  plane waves:   13023
 k-point 65 :  -0.2500 0.3750 0.5000  plane waves:   12996
 k-point 66 :   0.0000 0.5000 0.5000  plane waves:   13024
 k-point 67 :   0.2500 0.5000 0.5000  plane waves:   13003
 k-point 68 :   0.5000 0.5000 0.5000  plane waves:   12962

 maximum and minimum number of plane-waves per node :      3321     3191

 maximum number of plane-waves:     13039
 maximum index in each direction: 
   IXMAX=   16   IYMAX=   10   IZMAX=   18
   IXMIN=  -17   IYMIN=  -10   IZMIN=  -18


 real space projection operators:
  total allocation   :       6234.00 KBytes
  max/ min on nodes  :       1624.47       1493.75


 parallel 3D FFT for wavefunctions:
    minimum data exchange during FFTs selected (reduces bandwidth)
 parallel 3D FFT for charge:
    minimum data exchange during FFTs selected (reduces bandwidth)


 total amount of memory used by VASP MPI-rank0   144448. kBytes
=======================================================================

   base      :      30000. kBytes
   nonlr-proj:       4224. kBytes
   fftplans  :       1587. kBytes
   grid      :       2924. kBytes
   one-center:        186. kBytes
   wavefun   :     105527. kBytes
 
     INWAV:  cpu time    0.0000: real time    0.0002
 Broyden mixing: mesh for mixing (old mesh)
   NGX = 33   NGY = 21   NGZ = 37
  (NGX  =100   NGY  = 64   NGZ  =108)
  gives a total of  25641 points

 initial charge density was supplied:
 charge density of overlapping atoms calculated
 number of electron     370.0000000 magnetization 
 keeping initial charge density in first step


--------------------------------------------------------------------------------------------------------


 Maximum index for non-local projection operator          778
 Maximum index for augmentation-charges         1033 (set IRDMAX)


--------------------------------------------------------------------------------------------------------


 First call to EWALD:  gamma=   0.221
 Maximum number of real-space cells 2x 4x 2
 Maximum number of reciprocal cells 3x 2x 3

    FEWALD:  cpu time    0.0018: real time    0.0026


--------------------------------------- Iteration      1(   1)  ---------------------------------------


    POTLOK:  cpu time    0.0157: real time    0.3296
    SETDIJ:  cpu time    0.0041: real time    0.0042
     EDDAV:  cpu time   19.3125: real time   19.3940
 BZINTS: Fermi energy: 23.489464;370.000000 electrons
         Band energy:1022.732627;  BLOECHL correction: -0.066109
       DOS:  cpu time    0.1292: real time    0.1292
    --------------------------------------------
      LOOP:  cpu time   19.4616: real time   19.8570

 eigenvalue-minimisations  : 33824
 total energy-change (2. order) : 0.4385606E+04  (-0.2087564E+05)
 number of electron     370.0000000 magnetization 
 augmentation part      370.0000000 magnetization 

 Free energy of the ion-electron system (eV)
  ---------------------------------------------------
  alpha Z        PSCENC =      1846.29922370
  Ewald energy   TEWEN  =    -27861.30505662
  -Hartree energ DENC   =    -15866.16103521
  -exchange      EXHF   =         0.00000000
  -V(xc)+E(xc)   XCENC  =      1246.49466355
  PAW double counting   =     37467.60136202   -38188.76428185
  entropy T*S    EENTRO =         0.00000000
  eigenvalues    EBANDS =      1022.73262726
  atomic energy  EATOM  =     44718.70844369
  Solvation  Ediel_sol  =         0.00000000
  ---------------------------------------------------
  free energy    TOTEN  =      4385.60594654 eV

  energy without entropy =     4385.60594654  energy(sigma->0) =     4385.60594654


--------------------------------------------------------------------------------------------------------




--------------------------------------- Iteration      1(   2)  ---------------------------------------


     EDDAV:  cpu time   18.5293: real time   18.6079
 BZINTS: Fermi energy:  8.556752;370.000000 electrons
         Band energy:***********;  BLOECHL correction: -0.038858
       DOS:  cpu time    0.1245: real time    0.1245
    --------------------------------------------
      LOOP:  cpu time   18.6538: real time   18.7324

 eigenvalue-minimisations  : 32704
 total energy-change (2. order) :-0.4269769E+04  (-0.4018315E+04)
 number of electron     370.0000000 magnetization 
 augmentation part      370.0000000 magnetization 

 Free energy of the ion-electron system (eV)
  ---------------------------------------------------
  alpha Z        PSCENC =      1846.29922370
  Ewald energy   TEWEN  =    -27861.30505662
  -Hartree energ DENC   =    -15866.16103521
  -exchange      EXHF   =         0.00000000
  -V(xc)+E(xc)   XCENC  =      1246.49466355
  PAW double counting   =     37467.60136202   -38188.76428185
  entropy T*S    EENTRO =         0.00000000
  eigenvalues    EBANDS =     -3247.03650654
  atomic energy  EATOM  =     44718.70844369
  Solvation  Ediel_sol  =         0.00000000
  ---------------------------------------------------
  free energy    TOTEN  =       115.83681275 eV

  energy without entropy =      115.83681275  energy(sigma->0) =      115.83681275


--------------------------------------------------------------------------------------------------------




--------------------------------------- Iteration      1(   3)  ---------------------------------------


     EDDAV:  cpu time   19.3148: real time   19.3900
 BZINTS: Fermi energy:  6.776748;370.000000 electrons
         Band energy:***********;  BLOECHL correction: -0.010711
       DOS:  cpu time    0.1330: real time    0.1330
    --------------------------------------------
      LOOP:  cpu time   19.4477: real time   19.5229

 eigenvalue-minimisations  : 34376
 total energy-change (2. order) :-0.5595336E+03  (-0.5369261E+03)
 number of electron     370.0000000 magnetization 
 augmentation part      370.0000000 magnetization 

 Free energy of the ion-electron system (eV)
  ---------------------------------------------------
  alpha Z        PSCENC =      1846.29922370
  Ewald energy   TEWEN  =    -27861.30505662
  -Hartree energ DENC   =    -15866.16103521
  -exchange      EXHF   =         0.00000000
  -V(xc)+E(xc)   XCENC  =      1246.49466355
  PAW double counting   =     37467.60136202   -38188.76428185
  entropy T*S    EENTRO =         0.00000000
  eigenvalues    EBANDS =     -3806.57012143
  atomic energy  EATOM  =     44718.70844369
  Solvation  Ediel_sol  =         0.00000000
  ---------------------------------------------------
  free energy    TOTEN  =      -443.69680214 eV

  energy without entropy =     -443.69680214  energy(sigma->0) =     -443.69680214


--------------------------------------------------------------------------------------------------------




--------------------------------------- Iteration      1(   4)  ---------------------------------------


     EDDAV:  cpu time   20.4468: real time   20.5308
 BZINTS: Fermi energy:  6.620689;370.000000 electrons
         Band energy:***********;  BLOECHL correction: -0.003287
       DOS:  cpu time    0.1412: real time    0.1412
    --------------------------------------------
      LOOP:  cpu time   20.5880: real time   20.6720

 eigenvalue-minimisations  : 36920
 total energy-change (2. order) :-0.2726403E+02  (-0.2632538E+02)
 number of electron     370.0000000 magnetization 
 augmentation part      370.0000000 magnetization 

 Free energy of the ion-electron system (eV)
  ---------------------------------------------------
  alpha Z        PSCENC =      1846.29922370
  Ewald energy   TEWEN  =    -27861.30505662
  -Hartree energ DENC   =    -15866.16103521
  -exchange      EXHF   =         0.00000000
  -V(xc)+E(xc)   XCENC  =      1246.49466355
  PAW double counting   =     37467.60136202   -38188.76428185
  entropy T*S    EENTRO =         0.00000000
  eigenvalues    EBANDS =     -3833.83414644
  atomic energy  EATOM  =     44718.70844369
  Solvation  Ediel_sol  =         0.00000000
  ---------------------------------------------------
  free energy    TOTEN  =      -470.96082715 eV

  energy without entropy =     -470.96082715  energy(sigma->0) =     -470.96082715


--------------------------------------------------------------------------------------------------------




--------------------------------------- Iteration      1(   5)  ---------------------------------------


     EDDAV:  cpu time   21.2849: real time   21.3647
 BZINTS: Fermi energy:  6.615494;370.000000 electrons
         Band energy:***********;  BLOECHL correction: -0.003537
       DOS:  cpu time    0.1260: real time    0.1261
    CHARGE:  cpu time    0.4539: real time    0.4572
    MIXING:  cpu time    0.0011: real time    0.0011
    --------------------------------------------
      LOOP:  cpu time   21.8659: real time   21.9492

 eigenvalue-minimisations  : 38928
 total energy-change (2. order) :-0.9040035E+00  (-0.9002289E+00)
 number of electron     370.0000122 magnetization 
 augmentation part      102.0627352 magnetization 

 Broyden mixing:
  rms(total) = 0.15036E+02    rms(broyden)= 0.15033E+02
  rms(prec ) = 0.16095E+02
  weight for this iteration     100.00

 Free energy of the ion-electron system (eV)
  ---------------------------------------------------
  alpha Z        PSCENC =      1846.29922370
  Ewald energy   TEWEN  =    -27861.30505662
  -Hartree energ DENC   =    -15866.16103521
  -exchange      EXHF   =         0.00000000
  -V(xc)+E(xc)   XCENC  =      1246.49466355
  PAW double counting   =     37467.60136202   -38188.76428185
  entropy T*S    EENTRO =         0.00000000
  eigenvalues    EBANDS =     -3834.73814990
  atomic energy  EATOM  =     44718.70844369
  Solvation  Ediel_sol  =         0.00000000
  ---------------------------------------------------
  free energy    TOTEN  =      -471.86483061 eV

  energy without entropy =     -471.86483061  energy(sigma->0) =     -471.86483061


--------------------------------------------------------------------------------------------------------




--------------------------------------- Iteration      1(   6)  ---------------------------------------


    POTLOK:  cpu time    0.0128: real time    0.0129
    SETDIJ:  cpu time    0.0039: real time    0.0039
     EDDAV:  cpu time   21.5046: real time   21.5874
 BZINTS: Fermi energy:  4.705524;370.000000 electrons
         Band energy:***********;  BLOECHL correction: -0.001923
       DOS:  cpu time    0.1382: real time    0.1382
    CHARGE:  cpu time    0.4526: real time    0.4558
    MIXING:  cpu time    0.0008: real time    0.0008
    --------------------------------------------
      LOOP:  cpu time   22.1129: real time   22.1990

 eigenvalue-minimisations  : 39400
 total energy-change (2. order) : 0.3359770E+02  (-0.6333984E+02)
 number of electron     369.9999985 magnetization 
 augmentation part      105.0369026 magnetization 

 Broyden mixing:
  rms(total) = 0.13998E+02    rms(broyden)= 0.13994E+02
  rms(prec ) = 0.16890E+02
  weight for this iteration     100.00

 eigenvalues of (default mixing * dielectric matrix)
  average eigenvalue GAMMA=   0.5596
  0.5596

 Free energy of the ion-electron system (eV)
  ---------------------------------------------------
  alpha Z        PSCENC =      1846.29922370
  Ewald energy   TEWEN  =    -27861.30505662
  -Hartree energ DENC   =    -15821.29484872
  -exchange      EXHF   =         0.00000000
  -V(xc)+E(xc)   XCENC  =      1274.70443257
  PAW double counting   =     41946.82323816   -42634.93092142
  entropy T*S    EENTRO =         0.00000000
  eigenvalues    EBANDS =     -3907.27164099
  atomic energy  EATOM  =     44718.70844369
  Solvation  Ediel_sol  =         0.00000000
  ---------------------------------------------------
  free energy    TOTEN  =      -438.26712962 eV

  energy without entropy =     -438.26712962  energy(sigma->0) =     -438.26712962


--------------------------------------------------------------------------------------------------------




--------------------------------------- Iteration      1(   7)  ---------------------------------------


    POTLOK:  cpu time    0.0135: real time    0.0140
    SETDIJ:  cpu time    0.0038: real time    0.0038
     EDDAV:  cpu time   20.3229: real time   20.3983
 BZINTS: Fermi energy:  6.207141;370.000000 electrons
         Band energy:***********;  BLOECHL correction: -0.007380
       DOS:  cpu time    0.1417: real time    0.1417
    CHARGE:  cpu time    0.4529: real time    0.4561
    MIXING:  cpu time    0.0007: real time    0.0007
    --------------------------------------------
      LOOP:  cpu time   20.9356: real time   21.0146

 eigenvalue-minimisations  : 36592
 total energy-change (2. order) :-0.3011513E+01  (-0.2639890E+02)
 number of electron     370.0000178 magnetization 
 augmentation part       98.8787511 magnetization 

 Broyden mixing:
  rms(total) = 0.14286E+02    rms(broyden)= 0.14283E+02
  rms(prec ) = 0.15816E+02
  weight for this iteration     100.00

 eigenvalues of (default mixing * dielectric matrix)
  average eigenvalue GAMMA=   0.5660
  0.8968  0.2353

 Free energy of the ion-electron system (eV)
  ---------------------------------------------------
  alpha Z        PSCENC =      1846.29922370
  Ewald energy   TEWEN  =    -27861.30505662
  -Hartree energ DENC   =    -15814.97709317
  -exchange      EXHF   =         0.00000000
  -V(xc)+E(xc)   XCENC  =      1272.81209522
  PAW double counting   =     44223.19896224   -44953.86536821
  entropy T*S    EENTRO =         0.00000000
  eigenvalues    EBANDS =     -3872.14984931
  atomic energy  EATOM  =     44718.70844369
  Solvation  Ediel_sol  =         0.00000000
  ---------------------------------------------------
  free energy    TOTEN  =      -441.27864246 eV

  energy without entropy =     -441.27864246  energy(sigma->0) =     -441.27864246


--------------------------------------------------------------------------------------------------------




--------------------------------------- Iteration      1(   8)  ---------------------------------------


    POTLOK:  cpu time    0.0128: real time    0.0130
    SETDIJ:  cpu time    0.0038: real time    0.0038
     EDDAV:  cpu time   21.9312: real time   22.0151
 BZINTS: Fermi energy:  3.913601;370.000000 electrons
         Band energy:***********;  BLOECHL correction: -0.002503
       DOS:  cpu time    0.1377: real time    0.1377
    CHARGE:  cpu time    0.4532: real time    0.4534
    MIXING:  cpu time    0.0008: real time    0.0008
    --------------------------------------------
      LOOP:  cpu time   22.5394: real time   22.6237

 eigenvalue-minimisations  : 40328
 total energy-change (2. order) : 0.1222103E+02  (-0.1301837E+02)
 number of electron     370.0000141 magnetization 
 augmentation part      106.9677500 magnetization 

 Broyden mixing:
  rms(total) = 0.90537E+01    rms(broyden)= 0.90522E+01
  rms(prec ) = 0.10313E+02
  weight for this iteration     100.00

 eigenvalues of (default mixing * dielectric matrix)
  average eigenvalue GAMMA=   0.5788
  1.0346  0.3509  0.3509

 Free energy of the ion-electron system (eV)
  ---------------------------------------------------
  alpha Z        PSCENC =      1846.29922370
  Ewald energy   TEWEN  =    -27861.30505662
  -Hartree energ DENC   =    -15489.49917617
  -exchange      EXHF   =         0.00000000
  -V(xc)+E(xc)   XCENC  =      1261.05026061
  PAW double counting   =     46334.85300594   -47073.46295299
  entropy T*S    EENTRO =         0.00000000
  eigenvalues    EBANDS =     -4165.70135656
  atomic energy  EATOM  =     44718.70844369
  Solvation  Ediel_sol  =         0.00000000
  ---------------------------------------------------
  free energy    TOTEN  =      -429.05760841 eV

  energy without entropy =     -429.05760841  energy(sigma->0) =     -429.05760841


--------------------------------------------------------------------------------------------------------




--------------------------------------- Iteration      1(   9)  ---------------------------------------


    POTLOK:  cpu time    0.0127: real time    0.0128
    SETDIJ:  cpu time    0.0038: real time    0.0038
     EDDAV:  cpu time   20.7493: real time   20.8277
 BZINTS: Fermi energy:  6.446750;370.000000 electrons
         Band energy:***********;  BLOECHL correction: -0.008649
       DOS:  cpu time    0.1372: real time    0.1372
    CHARGE:  cpu time    0.4558: real time    0.4591
    MIXING:  cpu time    0.0008: real time    0.0008
    --------------------------------------------
      LOOP:  cpu time   21.3596: real time   21.4414

 eigenvalue-minimisations  : 37672
 total energy-change (2. order) :-0.1647354E+02  (-0.9981711E+01)
 number of electron     370.0000159 magnetization 
 augmentation part      100.6758144 magnetization 

 Broyden mixing:
  rms(total) = 0.11239E+02    rms(broyden)= 0.11237E+02
  rms(prec ) = 0.15729E+02
  weight for this iteration     100.00

 eigenvalues of (default mixing * dielectric matrix)
  average eigenvalue GAMMA=   0.6736
  1.6316  0.5755  0.3319  0.1553

 Free energy of the ion-electron system (eV)
  ---------------------------------------------------
  alpha Z        PSCENC =      1846.29922370
  Ewald energy   TEWEN  =    -27861.30505662
  -Hartree energ DENC   =    -15754.79658821
  -exchange      EXHF   =         0.00000000
  -V(xc)+E(xc)   XCENC  =      1269.67667344
  PAW double counting   =     48294.82359978   -49074.47830281
  entropy T*S    EENTRO =         0.00000000
  eigenvalues    EBANDS =     -3884.45913780
  atomic energy  EATOM  =     44718.70844369
  Solvation  Ediel_sol  =         0.00000000
  ---------------------------------------------------
  free energy    TOTEN  =      -445.53114482 eV

  energy without entropy =     -445.53114482  energy(sigma->0) =     -445.53114482


--------------------------------------------------------------------------------------------------------




--------------------------------------- Iteration      1(  10)  ---------------------------------------


    POTLOK:  cpu time    0.0127: real time    0.0128
    SETDIJ:  cpu time    0.0038: real time    0.0038
     EDDAV:  cpu time   21.1965: real time   21.2784
 BZINTS: Fermi energy:  6.199015;370.000000 electrons
         Band energy:***********;  BLOECHL correction: -0.004375
       DOS:  cpu time    0.1269: real time    0.1270
    CHARGE:  cpu time    0.4572: real time    0.4572
    MIXING:  cpu time    0.0009: real time    0.0009
    --------------------------------------------
      LOOP:  cpu time   21.7980: real time   21.8801

 eigenvalue-minimisations  : 38672
 total energy-change (2. order) :-0.3599166E+02  (-0.1151716E+02)
 number of electron     370.0000126 magnetization 
 augmentation part      100.0230112 magnetization 

 Broyden mixing:
  rms(total) = 0.11341E+02    rms(broyden)= 0.11340E+02
  rms(prec ) = 0.16148E+02
  weight for this iteration     100.00

 eigenvalues of (default mixing * dielectric matrix)
  average eigenvalue GAMMA=   0.6126
  1.8313  0.4433  0.4433  0.2226  0.1225

 Free energy of the ion-electron system (eV)
  ---------------------------------------------------
  alpha Z        PSCENC =      1846.29922370
  Ewald energy   TEWEN  =    -27861.30505662
  -Hartree energ DENC   =    -15890.37794177
  -exchange      EXHF   =         0.00000000
  -V(xc)+E(xc)   XCENC  =      1275.42853360
  PAW double counting   =     50808.42600680   -51622.73356953
  entropy T*S    EENTRO =         0.00000000
  eigenvalues    EBANDS =     -3755.96844804
  atomic energy  EATOM  =     44718.70844369
  Solvation  Ediel_sol  =         0.00000000
  ---------------------------------------------------
  free energy    TOTEN  =      -481.52280818 eV

  energy without entropy =     -481.52280818  energy(sigma->0) =     -481.52280818


--------------------------------------------------------------------------------------------------------




--------------------------------------- Iteration      1(  11)  ---------------------------------------


    POTLOK:  cpu time    0.0135: real time    0.0140
    SETDIJ:  cpu time    0.0038: real time    0.0038
     EDDAV:  cpu time   21.2895: real time   21.3719
 BZINTS: Fermi energy:  6.193459;370.000000 electrons
         Band energy:***********;  BLOECHL correction: -0.001972
       DOS:  cpu time    0.1375: real time    0.1376
    CHARGE:  cpu time    0.4539: real time    0.4539
    MIXING:  cpu time    0.0008: real time    0.0008
    --------------------------------------------
      LOOP:  cpu time   21.8990: real time   21.9821

 eigenvalue-minimisations  : 38904
 total energy-change (2. order) : 0.5314976E+02  (-0.4533962E+01)
 number of electron     370.0000120 magnetization 
 augmentation part      101.6661296 magnetization 

 Broyden mixing:
  rms(total) = 0.10161E+02    rms(broyden)= 0.10161E+02
  rms(prec ) = 0.14614E+02
  weight for this iteration     100.00

 eigenvalues of (default mixing * dielectric matrix)
  average eigenvalue GAMMA=   0.5742
  1.8518  0.5261  0.5261  0.2849  0.1282  0.1282

 Free energy of the ion-electron system (eV)
  ---------------------------------------------------
  alpha Z        PSCENC =      1846.29922370
  Ewald energy   TEWEN  =    -27861.30505662
  -Hartree energ DENC   =    -15809.23089009
  -exchange      EXHF   =         0.00000000
  -V(xc)+E(xc)   XCENC  =      1273.93080531
  PAW double counting   =     51952.47164823   -52770.01350362
  entropy T*S    EENTRO =         0.00000000
  eigenvalues    EBANDS =     -3779.23371968
  atomic energy  EATOM  =     44718.70844369
  Solvation  Ediel_sol  =         0.00000000
  ---------------------------------------------------
  free energy    TOTEN  =      -428.37304908 eV

  energy without entropy =     -428.37304908  energy(sigma->0) =     -428.37304908


--------------------------------------------------------------------------------------------------------




--------------------------------------- Iteration      1(  12)  ---------------------------------------


    POTLOK:  cpu time    0.0128: real time    0.0129
    SETDIJ:  cpu time    0.0038: real time    0.0038
     EDDAV:  cpu time   22.8172: real time   22.9023
 BZINTS: Fermi energy:  3.154303;370.000000 electrons
         Band energy:***********;  BLOECHL correction: -0.004715
       DOS:  cpu time    0.1332: real time    0.1332
    CHARGE:  cpu time    0.4543: real time    0.4578
    MIXING:  cpu time    0.0009: real time    0.0009
    --------------------------------------------
      LOOP:  cpu time   23.4222: real time   23.5109

 eigenvalue-minimisations  : 42368
 total energy-change (2. order) : 0.3152738E+02  (-0.6527037E+01)
 number of electron     370.0000118 magnetization 
 augmentation part      107.4527938 magnetization 

 Broyden mixing:
  rms(total) = 0.48270E+01    rms(broyden)= 0.48240E+01
  rms(prec ) = 0.62142E+01
  weight for this iteration     100.00

 eigenvalues of (default mixing * dielectric matrix)
  average eigenvalue GAMMA=   0.5611
  1.6966  0.7005  0.7005  0.3716  0.2119  0.1234  0.1234

 Free energy of the ion-electron system (eV)
  ---------------------------------------------------
  alpha Z        PSCENC =      1846.29922370
  Ewald energy   TEWEN  =    -27861.30505662
  -Hartree energ DENC   =    -15622.17314001
  -exchange      EXHF   =         0.00000000
  -V(xc)+E(xc)   XCENC  =      1268.69745733
  PAW double counting   =     52143.40371771   -52945.05481519
  entropy T*S    EENTRO =         0.00000000
  eigenvalues    EBANDS =     -3945.42149726
  atomic energy  EATOM  =     44718.70844369
  Solvation  Ediel_sol  =         0.00000000
  ---------------------------------------------------
  free energy    TOTEN  =      -396.84566664 eV

  energy without entropy =     -396.84566664  energy(sigma->0) =     -396.84566664


--------------------------------------------------------------------------------------------------------




--------------------------------------- Iteration      1(  13)  ---------------------------------------


    POTLOK:  cpu time    0.0128: real time    0.0129
    SETDIJ:  cpu time    0.0038: real time    0.0038
     EDDAV:  cpu time   22.5542: real time   22.6360
 BZINTS: Fermi energy:  3.638355;370.000000 electrons
         Band energy:***********;  BLOECHL correction: -0.007262
       DOS:  cpu time    0.1322: real time    0.1322
    CHARGE:  cpu time    0.4538: real time    0.4572
    MIXING:  cpu time    0.0010: real time    0.0010
    --------------------------------------------
      LOOP:  cpu time   23.1577: real time   23.2431

 eigenvalue-minimisations  : 41736
 total energy-change (2. order) : 0.1174970E+02  (-0.1490189E+01)
 number of electron     370.0000126 magnetization 
 augmentation part      105.4865095 magnetization 

 Broyden mixing:
  rms(total) = 0.38379E+01    rms(broyden)= 0.38360E+01
  rms(prec ) = 0.47701E+01
  weight for this iteration     100.00

 eigenvalues of (default mixing * dielectric matrix)
  average eigenvalue GAMMA=   0.6108
  1.8842  0.8159  0.8159  0.4414  0.4414  0.2367  0.1253  0.1253

 Free energy of the ion-electron system (eV)
  ---------------------------------------------------
  alpha Z        PSCENC =      1846.29922370
  Ewald energy   TEWEN  =    -27861.30505662
  -Hartree energ DENC   =    -15730.82324946
  -exchange      EXHF   =         0.00000000
  -V(xc)+E(xc)   XCENC  =      1270.14187943
  PAW double counting   =     52107.48331924   -52912.57545107
  entropy T*S    EENTRO =         0.00000000
  eigenvalues    EBANDS =     -3823.02507235
  atomic energy  EATOM  =     44718.70844369
[...]
  0.002   0.001   0.000   0.001  -0.000  -0.000  -0.044   0.013   0.039   0.042   0.016   0.021  -0.007  -0.019  -0.016  -0.004


------------------------ aborting loop because EDIFF is reached ----------------------------------------


 


 total charge     
 
# of ion       s       p       d       tot
------------------------------------------
    1        0.214   6.200   7.873  14.287
    2        0.214   6.200   7.873  14.287
    3        0.214   6.200   7.866  14.280
    4        0.212   6.198   7.865  14.275
    5        0.214   6.200   7.867  14.281
    6        0.212   6.198   7.868  14.278
    7        1.569   3.461   0.000   5.030
    8        1.572   3.459   0.000   5.031
    9        1.572   3.475   0.000   5.048
   10        1.569   3.459   0.000   5.028
   11        1.572   3.475   0.000   5.048
   12        1.569   3.459   0.000   5.028
   13        1.569   3.461   0.000   5.030
   14        1.572   3.459   0.000   5.031
   15        1.572   3.453   0.000   5.025
   16        1.571   3.463   0.000   5.034
   17        1.573   3.473   0.000   5.046
   18        1.573   3.454   0.000   5.026
   19        1.573   3.473   0.000   5.046
   20        1.573   3.454   0.000   5.026
   21        1.572   3.453   0.000   5.025
   22        1.571   3.463   0.000   5.034
   23        1.577   3.439   0.000   5.016
   24        1.572   3.447   0.000   5.019
   25        1.577   3.444   0.000   5.021
   26        1.576   3.439   0.000   5.015
   27        1.577   3.444   0.000   5.021
   28        1.576   3.439   0.000   5.014
   29        1.577   3.439   0.000   5.016
   30        1.572   3.447   0.000   5.020
   31        1.577   3.443   0.000   5.020
   32        1.575   3.441   0.000   5.016
   33        1.575   3.440   0.000   5.015
   34        1.578   3.440   0.000   5.018
   35        1.575   3.439   0.000   5.015
   36        1.578   3.440   0.000   5.018
   37        1.577   3.443   0.000   5.020
   38        1.575   3.441   0.000   5.016
   39        0.696   1.006   4.147   5.849
   40        0.695   1.001   4.129   5.825
   41        0.698   1.006   4.142   5.845
   42        0.695   1.008   4.139   5.842
   43        0.696   1.006   4.147   5.850
   44        0.695   1.001   4.129   5.824
   45        0.697   1.006   4.141   5.845
   46        0.695   1.008   4.139   5.842
   47        0.176   6.137   8.897  15.210
   48        0.176   6.137   8.898  15.210
--------------------------------------------------
tot         57.555 167.968  98.120 323.643
 
    CHARGE:  cpu time    0.4539: real time    0.4539
    FORLOC:  cpu time    0.0053: real time    0.0053
    FORNL :  cpu time    2.7583: real time    2.7691
    STRESS:  cpu time    8.3045: real time    8.3339
    FORCOR:  cpu time    0.0181: real time    0.0181
    FORHAR:  cpu time    0.0080: real time    0.0080
    MIXING:  cpu time    0.0034: real time    0.0034
    OFIELD:  cpu time    0.0001: real time    0.0001

  FORCE on cell =-STRESS in cart. coord.  units (eV):
  Direction    XX          YY          ZZ          XY          YZ          ZX
  --------------------------------------------------------------------------------------
  Alpha Z  1846.29922  1846.29922  1846.29922
  Ewald  -10735.24915 -9791.34545 -7334.83843    96.10597   -44.19996   129.43722
  Hartree  4181.66103  4948.45509  6780.80778    49.82265   -22.26971    21.51591
  E(xc)   -2154.81605 -2152.52379 -2154.44474     0.09225    -0.03322    -1.06345
  Local     115.90382 -1581.73102 -5815.25014  -138.71402    62.53358  -136.28445
  n-local -1505.10236 -1514.27123 -1493.24383     2.07224    -0.46895     1.44358
  augment  1696.15667  1701.37224  1686.45858    -3.65808     2.29478    -5.08774
  Kinetic  6555.16183  6543.74339  6484.24843    -5.73008     2.17858   -10.01688
  Fock        0.00000     0.00000     0.00000     0.00000     0.00000     0.00000
  -------------------------------------------------------------------------------------
  Total       0.01503    -0.00154     0.03686    -0.00906     0.03510    -0.05581
  in kB       0.04698    -0.00480     0.11522    -0.02831     0.10973    -0.17447
  external pressure =        0.05 kB  Pullay stress =        0.00 kB


 VOLUME and BASIS-vectors are now :
 -----------------------------------------------------------------------------
  energy-cutoff  :      500.00
  volume of cell :      512.55
      direct lattice vectors                 reciprocal lattice vectors
     9.127206464 -0.022682987 -0.053310717     0.109567669  0.000270015  0.000761826
    -0.014058669  5.667370916  0.013258478     0.000436109  0.176450705 -0.000412144
    -0.068956124  0.023315742  9.909176282     0.000588883 -0.000234638  0.100921212

  length of vectors
     9.127390338  5.667403862  9.909443636     0.109570650  0.176451726  0.100923203


 FORCES acting on ions
    electron-ion (+dipol)            ewald-force                    non-local-force                 convergence-correction
 -----------------------------------------------------------------------------------------------
   -.178E+01 -.259E+03 0.289E+02   0.174E+01 0.260E+03 -.293E+02   0.422E-01 -.871E+00 0.425E+00   -.917E-03 0.278E-01 0.354E-01
   0.196E+01 0.259E+03 -.291E+02   -.192E+01 -.260E+03 0.296E+02   -.468E-01 0.874E+00 -.426E+00   0.234E-03 -.823E-02 -.731E-01
   0.365E+01 -.268E+03 0.692E+01   -.360E+01 0.269E+03 -.716E+01   -.596E-01 -.128E+01 0.242E+00   0.290E-02 -.466E-01 0.152E-02
   0.273E+01 0.258E+03 0.298E+02   -.264E+01 -.259E+03 -.300E+02   -.939E-01 0.891E+00 0.125E+00   -.849E-03 -.106E-01 0.722E-01
   -.367E+01 0.268E+03 -.730E+01   0.361E+01 -.269E+03 0.762E+01   0.603E-01 0.128E+01 -.244E+00   -.374E-02 0.881E-02 -.813E-01
   -.270E+01 -.257E+03 -.293E+02   0.261E+01 0.258E+03 0.295E+02   0.924E-01 -.893E+00 -.128E+00   0.113E-03 0.302E-01 -.372E-01
   0.753E+02 0.124E+03 -.451E+02   -.655E+02 -.124E+03 0.391E+02   -.984E+01 -.147E+00 0.600E+01   0.613E-01 0.371E-01 -.899E-03
   0.565E+02 0.986E+02 -.442E+02   -.440E+02 -.967E+02 0.387E+02   -.125E+02 -.191E+01 0.555E+01   0.402E-01 0.259E-01 -.386E-01
   0.673E+02 0.109E+03 -.370E+02   -.543E+02 -.107E+03 0.292E+02   -.129E+02 -.133E+01 0.781E+01   -.406E-01 -.219E-01 0.388E-01
   0.629E+02 0.119E+03 -.506E+02   -.510E+02 -.119E+03 0.451E+02   -.118E+02 0.120E+00 0.551E+01   -.226E-01 -.854E-02 -.213E-01
   -.673E+02 -.108E+03 0.370E+02   0.543E+02 0.107E+03 -.292E+02   0.129E+02 0.133E+01 -.781E+01   -.101E-01 0.156E-01 -.281E-01
   -.630E+02 -.120E+03 0.506E+02   0.512E+02 0.120E+03 -.451E+02   0.118E+02 -.124E+00 -.551E+01   -.269E-01 -.163E-02 0.136E-01
   -.752E+02 -.124E+03 0.452E+02   0.653E+02 0.124E+03 -.392E+02   0.985E+01 0.157E+00 -.600E+01   0.121E-01 -.352E-03 -.189E-01
   -.564E+02 -.986E+02 0.442E+02   0.438E+02 0.967E+02 -.387E+02   0.125E+02 0.192E+01 -.555E+01   0.158E-02 -.206E-01 0.347E-01
   -.574E+02 0.103E+03 0.401E+02   0.456E+02 -.102E+03 -.332E+02   0.118E+02 -.140E+01 -.690E+01   -.589E-01 0.371E-01 0.406E-01
   -.673E+02 0.117E+03 0.426E+02   0.557E+02 -.117E+03 -.364E+02   0.116E+02 -.225E+00 -.613E+01   -.408E-01 0.257E-01 -.249E-02
   -.563E+02 0.107E+03 0.428E+02   0.416E+02 -.106E+03 -.350E+02   0.146E+02 -.120E+01 -.773E+01   0.397E-01 -.207E-01 0.190E-02
   -.625E+02 0.113E+03 0.340E+02   0.506E+02 -.113E+03 -.264E+02   0.119E+02 0.119E+00 -.764E+01   0.211E-01 -.933E-02 -.193E-01
   0.563E+02 -.107E+03 -.426E+02   -.417E+02 0.106E+03 0.349E+02   -.146E+02 0.121E+01 0.774E+01   0.163E-01 0.172E-01 0.217E-01
   0.625E+02 -.112E+03 -.342E+02   -.506E+02 0.113E+03 0.265E+02   -.119E+02 -.119E+00 0.763E+01   0.213E-01 -.264E-02 -.711E-02
   0.576E+02 -.103E+03 -.401E+02   -.458E+02 0.102E+03 0.332E+02   -.118E+02 0.139E+01 0.689E+01   -.164E-01 0.298E-03 0.127E-02
   0.672E+02 -.117E+03 -.426E+02   -.556E+02 0.117E+03 0.365E+02   -.116E+02 0.226E+00 0.614E+01   0.285E-02 -.200E-01 -.168E-01
   0.178E+03 0.992E+02 0.678E+02   -.170E+03 -.871E+02 -.631E+02   -.774E+01 -.121E+02 -.483E+01   0.450E-01 -.171E-01 0.581E-01
   0.204E+03 0.122E+03 0.677E+02   -.199E+03 -.114E+03 -.634E+02   -.488E+01 -.851E+01 -.428E+01   0.419E-01 0.227E-02 0.166E-01
   0.192E+03 0.113E+03 0.280E+02   -.185E+03 -.103E+03 -.200E+02   -.722E+01 -.993E+01 -.799E+01   -.359E-01 0.560E-02 -.208E-01
   0.191E+03 0.106E+03 0.692E+02   -.185E+03 -.956E+02 -.643E+02   -.591E+01 -.104E+02 -.489E+01   -.124E-01 0.227E-01 -.188E-01
   -.192E+03 -.114E+03 -.278E+02   0.185E+03 0.104E+03 0.198E+02   0.724E+01 0.987E+01 0.796E+01   -.418E-01 -.465E-01 0.524E-01
   -.191E+03 -.106E+03 -.694E+02   0.186E+03 0.957E+02 0.645E+02   0.592E+01 0.104E+02 0.488E+01   -.339E-01 -.288E-01 -.142E-01
   -.178E+03 -.992E+02 -.677E+02   0.170E+03 0.871E+02 0.629E+02   0.775E+01 0.121E+02 0.483E+01   0.311E-01 0.206E-01 0.792E-02
   -.204E+03 -.122E+03 -.678E+02   0.199E+03 0.113E+03 0.636E+02   0.484E+01 0.854E+01 0.431E+01   0.462E-02 0.130E-01 -.450E-01
   -.176E+03 0.957E+02 -.874E+02   0.168E+03 -.834E+02 0.831E+02   0.797E+01 -.122E+02 0.432E+01   -.322E-01 -.155E-01 -.481E-01
   -.197E+03 0.113E+03 -.582E+02   0.191E+03 -.103E+03 0.533E+02   0.577E+01 -.100E+02 0.491E+01   -.546E-01 0.622E-03 -.266E-01
   -.194E+03 0.111E+03 -.729E+02   0.188E+03 -.100E+03 0.681E+02   0.598E+01 -.101E+02 0.487E+01   0.255E-01 0.507E-04 -.139E-01
   -.186E+03 0.105E+03 -.291E+02   0.178E+03 -.943E+02 0.214E+02   0.791E+01 -.109E+02 0.769E+01   0.222E-01 0.276E-01 0.515E-01
   0.194E+03 -.110E+03 0.730E+02   -.188E+03 0.100E+03 -.681E+02   -.599E+01 0.101E+02 -.488E+01   0.480E-01 -.413E-01 0.108E-01
   0.186E+03 -.105E+03 0.292E+02   -.178E+03 0.942E+02 -.214E+02   -.792E+01 0.109E+02 -.768E+01   0.247E-01 -.320E-01 -.505E-01
   0.176E+03 -.958E+02 0.873E+02   -.168E+03 0.835E+02 -.830E+02   -.797E+01 0.122E+02 -.431E+01   -.168E-01 0.230E-01 0.604E-01
   0.197E+03 -.113E+03 0.582E+02   -.191E+03 0.103E+03 -.533E+02   -.579E+01 0.101E+02 -.492E+01   -.188E-01 0.868E-02 -.256E-01
   -.155E+01 0.377E+02 0.856E+01   0.147E+01 -.377E+02 -.826E+01   0.498E-01 0.223E-01 -.294E+00   0.336E-01 0.555E-03 -.679E-02
   -.593E+01 0.501E+02 0.194E+01   0.564E+01 -.499E+02 -.191E+01   0.262E+00 -.179E+00 -.317E-01   0.315E-01 0.356E-02 0.604E-02
   -.254E+00 0.462E+02 -.101E+02   0.227E+00 -.458E+02 0.986E+01   0.618E-01 -.342E+00 0.269E+00   -.321E-01 0.360E-02 -.792E-02
   0.146E+01 0.413E+02 0.912E+00   -.136E+01 -.414E+02 -.101E+01   -.739E-01 0.750E-01 0.920E-01   -.319E-01 0.258E-02 0.874E-02
   0.157E+01 -.378E+02 -.843E+01   -.155E+01 0.378E+02 0.811E+01   -.506E-01 -.199E-01 0.291E+00   0.321E-01 -.129E-04 0.290E-01
   0.600E+01 -.501E+02 -.207E+01   -.576E+01 0.499E+02 0.206E+01   -.265E+00 0.180E+00 0.359E-01   0.201E-01 -.864E-03 -.242E-01
   0.144E+00 -.462E+02 0.102E+02   -.554E-01 0.459E+02 -.998E+01   -.581E-01 0.342E+00 -.273E+00   -.323E-01 -.308E-02 0.266E-01
   -.151E+01 -.413E+02 -.968E+00   0.146E+01 0.414E+02 0.109E+01   0.730E-01 -.736E-01 -.907E-01   -.207E-01 -.477E-03 -.302E-01
   -.555E+01 -.227E+03 -.368E+01   0.555E+01 0.229E+03 0.383E+01   0.625E-02 -.155E+01 -.148E+00   -.114E-02 -.464E-01 0.862E-03
   0.534E+01 0.228E+03 0.389E+01   -.534E+01 -.229E+03 -.412E+01   0.340E-04 0.154E+01 0.152E+00   -.334E-03 0.951E-02 0.777E-01
 -----------------------------------------------------------------------------------------------
   -.220E-01 0.375E-01 0.316E-01   -.284E-12 -.369E-12 0.657E-13   -.106E-01 -.232E-02 -.301E-01   -.648E-02 -.337E-01 -.918E-02
 
 
 POSITION                                       TOTAL-FORCE (eV/Angst)
 -----------------------------------------------------------------------------------
      6.79197      3.72560      6.18689         0.000249     -0.001049      0.000255
      2.21814      1.95382      8.63679         0.000422      0.001725     -0.000845
      2.22892      3.69687      6.19568         0.000661      0.000192      0.001954
      2.24399      1.97433      3.72207        -0.000309      0.000513     -0.002470
      6.78109      1.98281      8.62781         0.000151     -0.000737     -0.001742
      6.83436      3.68205      1.19269         0.001854      0.001191      0.003759
      0.97489      0.69574      4.57218         0.000202     -0.000227      0.000583
      0.94430      0.60174      9.54587        -0.002179      0.004501     -0.001954
      5.52163      0.63340      4.58890        -0.001415      0.000010     -0.002758
      5.55935      0.63894      9.50011        -0.001803     -0.001401      0.000703
      3.55713      5.02294      0.32559         0.001085     -0.004071      0.002527
      3.45035      5.04069      5.32373         0.008335      0.001920     -0.008733
      8.10366      4.96099      0.34222        -0.003605     -0.001496     -0.003714
      8.06573      5.07819      5.27790         0.003368     -0.002408      0.001068
      3.53598      0.63946      2.81073         0.009275      0.001475      0.000324
      3.47204      0.63251      7.78076        -0.003384     -0.000714     -0.001153
      8.06423      0.59658      2.75386        -0.000042     -0.001872      0.000753
      8.04751      0.63861      7.74484        -0.003034     -0.001296     -0.004674
      1.01412      5.05978      2.16030         0.000871      0.002175     -0.001403
      0.96251      5.04109      7.07879        -0.001834      0.000047     -0.003971
      5.54280      5.01632      2.10355        -0.000239     -0.000216      0.002305
      5.53786      5.04682      7.04293        -0.006979      0.001397      0.004279
      1.17517      2.11209      2.04808         0.002846      0.000405     -0.000170
      1.19990      2.15627      6.98270         0.005454      0.001509     -0.000443
      5.73285      2.18483      1.90841        -0.002691     -0.002141     -0.002748
      5.69893      2.13920      6.97668        -0.000449     -0.005573     -0.000678
      3.34381      3.47223      3.00783         0.000083     -0.005093      0.006753
      3.31072      3.54040      7.84692         0.002010      0.003603      0.000039
      7.90327      3.54413      2.86666         0.001705      0.002319      0.000999
      7.81139      3.52258      7.84005        -0.002877      0.003678      0.005195
      3.33995      2.06675      0.36723        -0.000913     -0.002787      0.005717
      3.29557      2.14474      5.38620        -0.000588      0.006592     -0.001194
      7.91389      2.10267      0.37628        -0.001130      0.001096     -0.006970
      7.89627      2.21056      5.45474        -0.000263     -0.003128      0.003516
      1.16430      3.55450      4.53864        -0.002593     -0.002172      0.001473
      1.11362      3.46906      9.36909        -0.006111      0.006622     -0.003948
      5.73872      3.58959      4.54731         0.001043     -0.005138      0.002789
      5.71420      3.53483      9.43708        -0.001030      0.000492      0.003605
      9.10772      0.95419      1.19780        -0.000596     -0.001883     -0.000370
      9.06893      1.00094      6.14662        -0.000139      0.000211      0.000178
      4.55725      0.98043      1.19534         0.003351     -0.000927     -0.000249
      4.50777      0.98704      6.16920         0.001276      0.002026      0.002191
     -0.02925      4.70237      3.71647        -0.000950      0.002502     -0.000588
     -0.05891      4.67869      8.67713        -0.000664     -0.001012      0.000992
      4.52139      4.67582      3.71917        -0.000643      0.001732      0.000132
      4.50197      4.69253      8.65442         0.000546     -0.002133     -0.001715
      2.26861      3.73339      1.22396         0.001650      0.000607     -0.000369
      6.81006      1.92298      3.69076         0.000023     -0.001068      0.000772
 -----------------------------------------------------------------------------------
    total drift:                               -0.039101      0.001466     -0.007651


--------------------------------------------------------------------------------------------------------



  FREE ENERGIE OF THE ION-ELECTRON SYSTEM (eV)
  ---------------------------------------------------
  free  energy   TOTEN  =      -377.23450246 eV

  energy  without entropy=     -377.23450246  energy(sigma->0) =     -377.23450246
 


--------------------------------------------------------------------------------------------------------


    POTLOK:  cpu time    0.0175: real time    0.0175


--------------------------------------------------------------------------------------------------------


 writing wavefunctions
     LOOP+:  cpu time  862.0780: real time  865.6825
    4ORBIT:  cpu time    0.0000: real time    0.0000
 


 total charge     
 
# of ion       s       p       d       tot
------------------------------------------
    1        0.214   6.200   7.873  14.287
    2        0.214   6.200   7.873  14.287
    3        0.214   6.200   7.866  14.280
    4        0.212   6.198   7.865  14.275
    5        0.214   6.200   7.867  14.281
    6        0.212   6.198   7.868  14.278
    7        1.569   3.461   0.000   5.030
    8        1.572   3.459   0.000   5.031
    9        1.572   3.475   0.000   5.048
   10        1.569   3.459   0.000   5.028
   11        1.572   3.475   0.000   5.048
   12        1.569   3.459   0.000   5.028
   13        1.569   3.461   0.000   5.030
   14        1.572   3.459   0.000   5.031
   15        1.572   3.453   0.000   5.025
   16        1.571   3.463   0.000   5.034
   17        1.573   3.473   0.000   5.046
   18        1.573   3.454   0.000   5.026
   19        1.573   3.473   0.000   5.046
   20        1.573   3.454   0.000   5.026
   21        1.572   3.453   0.000   5.025
   22        1.571   3.463   0.000   5.034
   23        1.577   3.439   0.000   5.016
   24        1.572   3.447   0.000   5.019
   25        1.577   3.444   0.000   5.021
   26        1.576   3.439   0.000   5.015
   27        1.577   3.444   0.000   5.021
   28        1.576   3.439   0.000   5.014
   29        1.577   3.439   0.000   5.016
   30        1.572   3.447   0.000   5.020
   31        1.577   3.443   0.000   5.020
   32        1.575   3.441   0.000   5.016
   33        1.575   3.440   0.000   5.015
   34        1.578   3.440   0.000   5.018
   35        1.575   3.439   0.000   5.015
   36        1.578   3.440   0.000   5.018
   37        1.577   3.443   0.000   5.020
   38        1.575   3.441   0.000   5.016
   39        0.696   1.006   4.147   5.849
   40        0.695   1.001   4.129   5.825
   41        0.698   1.006   4.142   5.845
   42        0.695   1.008   4.139   5.842
   43        0.696   1.006   4.147   5.850
   44        0.695   1.001   4.129   5.824
   45        0.697   1.006   4.141   5.845
   46        0.695   1.008   4.139   5.842
   47        0.176   6.137   8.897  15.210
   48        0.176   6.137   8.898  15.210
--------------------------------------------------
tot         57.555 167.968  98.120 323.643
 
 BZINTS: Fermi energy:  4.347946;370.000000 electrons
         Band energy:***********;  BLOECHL correction: -0.007497

 total amount of memory used by VASP MPI-rank0   144448. kBytes
=======================================================================

   base      :      30000. kBytes
   nonlr-proj:       4224. kBytes
   fftplans  :       1587. kBytes
   grid      :       2924. kBytes
   one-center:        186. kBytes
   wavefun   :     105527. kBytes
 
  
  
 General timing and accounting informations for this job:
 ========================================================
  
                  Total CPU time used (sec):      885.469
                            User time (sec):      877.437
                          System time (sec):        8.032
                         Elapsed time (sec):      889.129
  
                   Maximum memory used (kb):      261364.
                   Average memory used (kb):           0.
  
                          Minor page faults:        84434
                          Major page faults:            0
                 Voluntary context switches:          589
