   24   24    1    2
  0.1055123E+02  0.9097362E-09  0.5635252E-09  0.4939867E-09  0.5000000E-15
  1.000000000000000E-004
  CAR 
 NiWO4                                   
    184    132    120
 
  0.0000000E+00  0.0000000E+00  0.0000000E+00  0.3906250E-02
    1      -60.290873    -58.304212   1.000000   1.000000
    2      -60.290796    -58.304130   1.000000   1.000000
    3      -60.283977    -58.296032   1.000000   1.000000
    4      -60.283901    -58.296020   1.000000   1.000000
    5      -60.259419    -58.288367   1.000000   1.000000
    6      -60.259210    -58.288123   1.000000   1.000000
    7      -60.255987    -58.284486   1.000000   1.000000
    8      -60.255859    -58.284323   1.000000   1.000000
    9      -60.248580    -58.278727   1.000000   1.000000
   10      -60.248403    -58.278659   1.000000   1.000000
   11      -60.248381    -58.278579   1.000000   1.000000
   12      -60.248275    -58.278403   1.000000   1.000000
   13      -15.530045    -15.421068   1.000000   1.000000
   14      -14.999253    -14.898645   1.000000   1.000000
   15      -14.570303    -14.423821   1.000000   1.000000
   16      -14.310795    -14.206184   1.000000   1.000000
   17      -14.231940    -14.105554   1.000000   1.000000
   18      -14.140899    -14.011978   1.000000   1.000000
   19      -14.116622    -13.966176   1.000000   1.000000
   20      -13.977470    -13.825306   1.000000   1.000000
   21      -13.925735    -13.771211   1.000000   1.000000
   22      -13.886545    -13.740125   1.000000   1.000000
   23      -13.850975    -13.699723   1.000000   1.000000
   24      -13.744376    -13.645484   1.000000   1.000000
   25      -13.710589    -13.556015   1.000000   1.000000
   26      -13.616482    -13.508695   1.000000   1.000000
   27      -13.517073    -13.386070   1.000000   1.000000
   28      -13.402975    -13.297165   1.000000   1.000000
   29       -3.246839     -3.098950   1.000000   1.000000
   30       -2.930478     -2.798682   1.000000   1.000000
   31       -2.796468     -2.664070   1.000000   1.000000
   32       -2.648380     -2.526177   1.000000   1.000000
   33       -2.627055     -2.401286   1.000000   1.000000
   34       -2.494199     -2.265713   1.000000   1.000000
   35       -2.416088     -2.148873   1.000000   1.000000
   36       -2.321639     -2.115106   1.000000   1.000000
   37       -2.315634     -2.037087   1.000000   1.000000
   38       -2.071947     -1.858817   1.000000   1.000000
   39       -2.047820     -1.620047   1.000000   1.000000
   40       -1.921389     -1.393152   1.000000   1.000000
   41       -1.727407     -1.313980   1.000000   1.000000
   42       -1.725087     -1.307425   1.000000   1.000000
   43       -1.666435     -1.302379   1.000000   1.000000
   44       -1.643178     -0.960400   1.000000   1.000000
   45       -1.584355     -0.942977   1.000000   1.000000
   46       -1.345716     -0.887795   1.000000   1.000000
   47       -1.297872     -0.840958   1.000000   1.000000
   48       -0.829724     -0.685201   1.000000   1.000000
   49       -0.817193     -0.334274   1.000000   1.000000
   50       -0.760051     -0.301319   1.000000   1.000000
   51       -0.330781     -0.014812   1.000000   1.000000
   52       -0.293239      0.076555   1.000000   1.000000
   53       -0.234505      0.168764   1.000000   1.000000
   54       -0.110460      0.307816   1.000000   1.000000
   55       -0.059297      0.377065   1.000000   1.000000
   56        0.037345      0.499749   1.000000   1.000000
   57        0.214917      0.559140   1.000000   1.000000
   58        0.291520      0.632710   1.000000   1.000000
   59        0.311931      0.767214   1.000000   1.000000
   60        0.370540      0.770124   1.000000   1.000000
   61        0.404657      0.950143   1.000000   1.000000
   62        0.493637      1.062144   1.000000   1.000000
   63        0.719361      1.186943   1.000000   1.000000
   64        0.759718      1.313563   1.000000   1.000000
   65        0.840122      1.313833   1.000000   1.000000
   66        0.903978      1.442368   1.000000   1.000000
   67        1.278002      1.527957   1.000000   1.000000
   68        1.365530      1.811610   1.000000   1.000000
   69        1.502397      1.894409   1.000000   1.000000
   70        1.509848      1.915421   1.000000   1.000000
   71        1.548638      2.139504   1.000000   1.000000
   72        1.690813      2.270899   1.000000   1.000000
   73        1.733959      2.324661   1.000000   1.000000
   74        1.766332      2.417560   1.000000   1.000000
   75        1.770423      2.678618   1.000000   1.000000
   76        1.972024      2.787834   1.000000   1.000000
   77        2.025437      2.848503   1.000000   1.000000
   78        2.201606      2.941036   1.000000   1.000000
   79        2.255761      3.062702   1.000000   1.000000
   80        2.275924      3.206041   1.000000   1.000000
   81        2.385261      3.209840   1.000000   1.000000
   82        2.417478      3.213023   1.000000   1.000000
   83        2.434053      3.239346   1.000000   1.000000
   84        2.485977      3.249334   1.000000   1.000000
   85        2.663982      3.281202   1.000000   1.000000
   86        2.665575      3.503662   1.000000   1.000000
   87        2.807033      3.507447   1.000000   1.000000
   88        2.872005      3.523129   1.000000   1.000000
   89        2.907564      4.897278   1.000000   0.000000
   90        2.926595      5.383964   1.000000   0.000000
   91        3.013281      5.623660   1.000000   0.000000
   92        3.106630      5.754295   1.000000   0.000000
   93        3.265341      5.820416   1.000000   0.000000
   94        3.667284      5.983734   1.000000   0.000000
   95        3.726231      6.000097   1.000000   0.000000
   96        3.748267      6.429381   1.000000   0.000000
   97        6.120219      6.449737   0.000000   0.000000
   98        6.154645      6.481585   0.000000   0.000000
   99        6.245456      6.513489   0.000000   0.000000
  100        6.319104      6.532523   0.000000   0.000000
  101        6.341716      6.871350   0.000000   0.000000
  102        6.620878      7.148956   0.000000   0.000000
  103        6.667439      7.254001   0.000000   0.000000
  104        6.746548      7.274141   0.000000   0.000000
  105        6.773415      7.362487   0.000000   0.000000
  106        7.242636      7.700283   0.000000   0.000000
  107        7.289408      7.744973   0.000000   0.000000
  108        7.399924      7.852097   0.000000   0.000000
  109        9.727983      9.860748   0.000000   0.000000
  110       10.352436     10.423483   0.000000   0.000000
  111       10.358335     10.468860   0.000000   0.000000
  112       10.690976     10.824551   0.000000   0.000000
  113       11.017523     11.122420   0.000000   0.000000
  114       11.060269     11.192259   0.000000   0.000000
  115       11.182644     11.355177   0.000000   0.000000
  116       11.360941     11.454206   0.000000   0.000000
  117       11.799233     11.877050   0.000000   0.000000
  118       12.177985     12.273855   0.000000   0.000000
  119       12.437626     12.652265   0.000000   0.000000
  120       14.351977     14.597390   0.000000   0.000000
 
  0.2500000E+00  0.0000000E+00  0.0000000E+00  0.7812500E-02
    1      -60.290834    -58.304159   1.000000   1.000000
    2      -60.290766    -58.304092   1.000000   1.000000
    3      -60.283989    -58.296119   1.000000   1.000000
    4      -60.283893    -58.295961   1.000000   1.000000
    5      -60.259352    -58.288289   1.000000   1.000000
    6      -60.259218    -58.288142   1.000000   1.000000
    7      -60.256039    -58.284530   1.000000   1.000000
    8      -60.255902    -58.284400   1.000000   1.000000
    9      -60.248580    -58.278775   1.000000   1.000000
   10      -60.248432    -58.278641   1.000000   1.000000
   11      -60.248413    -58.278463   1.000000   1.000000
   12      -60.248150    -58.278436   1.000000   1.000000
   13      -15.479145    -15.370144   1.000000   1.000000
   14      -15.133619    -15.027332   1.000000   1.000000
   15      -14.449762    -14.309284   1.000000   1.000000
   16      -14.300431    -14.193382   1.000000   1.000000
   17      -14.244884    -14.122696   1.000000   1.000000
   18      -14.179869    -14.048372   1.000000   1.000000
   19      -14.104489    -13.954110   1.000000   1.000000
   20      -14.017234    -13.866666   1.000000   1.000000
   21      -13.909398    -13.756404   1.000000   1.000000
   22      -13.858750    -13.707633   1.000000   1.000000
   23      -13.841574    -13.692500   1.000000   1.000000
   24      -13.728275    -13.599709   1.000000   1.000000
   25      -13.699202    -13.574484   1.000000   1.000000
   26      -13.600334    -13.488281   1.000000   1.000000
   27      -13.530439    -13.402197   1.000000   1.000000
   28      -13.455691    -13.351100   1.000000   1.000000
   29       -3.167360     -3.021483   1.000000   1.000000
   30       -2.900361     -2.767808   1.000000   1.000000
   31       -2.815990     -2.631052   1.000000   1.000000
   32       -2.708241     -2.564356   1.000000   1.000000
   33       -2.680749     -2.536342   1.000000   1.000000
   34       -2.669267     -2.312499   1.000000   1.000000
   35       -2.426736     -2.290996   1.000000   1.000000
   36       -2.256339     -2.030445   1.000000   1.000000
   37       -2.197701     -1.898311   1.000000   1.000000
   38       -2.078009     -1.892365   1.000000   1.000000
   39       -1.991247     -1.444927   1.000000   1.000000
   40       -1.895437     -1.435704   1.000000   1.000000
   41       -1.792635     -1.295632   1.000000   1.000000
   42       -1.789911     -1.264650   1.000000   1.000000
   43       -1.553770     -1.248607   1.000000   1.000000
   44       -1.502759     -0.953929   1.000000   1.000000
   45       -1.479494     -0.924241   1.000000   1.000000
   46       -1.276667     -0.919100   1.000000   1.000000
   47       -1.183186     -0.825121   1.000000   1.000000
   48       -1.013796     -0.747783   1.000000   1.000000
   49       -0.909433     -0.637679   1.000000   1.000000
   50       -0.661203     -0.297709   1.000000   1.000000
   51       -0.631967     -0.126626   1.000000   1.000000
   52       -0.536429     -0.050360   1.000000   1.000000
   53       -0.461440      0.184608   1.000000   1.000000
   54       -0.368519      0.232756   1.000000   1.000000
   55       -0.294920      0.262875   1.000000   1.000000
   56       -0.005345      0.326427   1.000000   1.000000
   57        0.415147      0.681941   1.000000   1.000000
   58        0.436999      0.895371   1.000000   1.000000
   59        0.496201      0.957350   1.000000   1.000000
   60        0.581071      1.011113   1.000000   1.000000
   61        0.624957      1.076171   1.000000   1.000000
   62        0.701616      1.133187   1.000000   1.000000
   63        0.706505      1.223987   1.000000   1.000000
   64        0.908870      1.286121   1.000000   1.000000
   65        0.931861      1.323766   1.000000   1.000000
   66        0.999095      1.454384   1.000000   1.000000
   67        1.183947      1.573142   1.000000   1.000000
   68        1.347069      1.801980   1.000000   1.000000
   69        1.547299      1.880032   1.000000   1.000000
   70        1.550129      1.953647   1.000000   1.000000
   71        1.616082      2.025631   1.000000   1.000000
   72        1.639167      2.192813   1.000000   1.000000
   73        1.641831      2.386750   1.000000   1.000000
   74        1.683886      2.402795   1.000000   1.000000
   75        1.873979      2.485278   1.000000   1.000000
   76        1.925795      2.626099   1.000000   1.000000
   77        1.947666      2.931536   1.000000   1.000000
   78        2.173163      2.949602   1.000000   1.000000
   79        2.173241      3.120814   1.000000   1.000000
   80        2.173740      3.145482   1.000000   1.000000
   81        2.234680      3.164051   1.000000   1.000000
   82        2.316042      3.200563   1.000000   1.000000
   83        2.414599      3.241001   1.000000   1.000000
   84        2.593864      3.318967   1.000000   1.000000
   85        2.665445      3.338663   1.000000   1.000000
   86        2.705669      3.464127   1.000000   1.000000
   87        2.748366      3.468512   1.000000   1.000000
   88        2.937941      3.493896   1.000000   1.000000
   89        2.974684      4.993689   1.000000   0.000000
   90        3.027545      5.434459   1.000000   0.000000
   91        3.032419      5.437642   1.000000   0.000000
   92        3.136584      5.744601   1.000000   0.000000
   93        3.216043      5.953634   1.000000   0.000000
   94        3.640525      6.004258   1.000000   0.000000
   95        3.668545      6.021736   1.000000   0.000000
   96        3.675264      6.376386   1.000000   0.000000
   97        6.139890      6.424363   0.000000   0.000000
   98        6.177993      6.468114   0.000000   0.000000
   99        6.228937      6.487798   0.000000   0.000000
  100        6.311952      6.497210   0.000000   0.000000
  101        6.365037      6.885933   0.000000   0.000000
  102        6.578542      7.089649   0.000000   0.000000
  103        6.654382      7.224330   0.000000   0.000000
  104        6.656357      7.312882   0.000000   0.000000
  105        6.939919      7.567464   0.000000   0.000000
  106        7.246455      7.673069   0.000000   0.000000
  107        7.279435      7.701885   0.000000   0.000000
  108        7.384731      7.830829   0.000000   0.000000
  109        9.945640     10.079676   0.000000   0.000000
  110       10.320146     10.399012   0.000000   0.000000
  111       10.329897     10.436506   0.000000   0.000000
  112       10.703262     10.836554   0.000000   0.000000
  113       10.936801     11.045946   0.000000   0.000000
  114       11.130994     11.263868   0.000000   0.000000
  115       11.211623     11.373851   0.000000   0.000000
  116       11.401398     11.527157   0.000000   0.000000
  117       11.482323     11.575895   0.000000   0.000000
  118       11.804448     11.896767   0.000000   0.000000
  119       13.109785     13.276143   0.000000   0.000000
  120       14.279479     14.402939   0.000000   0.000000
 
  0.5000000E+00  0.0000000E+00  0.0000000E+00  0.3906250E-02
    1      -60.290796    -58.304118   1.000000   1.000000
    2      -60.290783    -58.304106   1.000000   1.000000
    3      -60.283889    -58.295977   1.000000   1.000000
    4      -60.283876    -58.295965   1.000000   1.000000
    5      -60.259219    -58.288147   1.000000   1.000000
    6      -60.259206    -58.288135   1.000000   1.000000
    7      -60.255957    -58.284460   1.000000   1.000000
    8      -60.255943    -58.284447   1.000000   1.000000
    9      -60.248470    -58.278497   1.000000   1.000000
   10      -60.248457    -58.278485   1.000000   1.000000
   11      -60.248161    -58.278432   1.000000   1.000000
   12      -60.248148    -58.278419   1.000000   1.000000
   13      -15.335508    -15.226810   1.000000   1.000000
   14      -15.335507    -15.226809   1.000000   1.000000
   15      -14.286070    -14.160066   1.000000   1.000000
   16      -14.286070    -14.160065   1.000000   1.000000
   17      -14.273845    -14.150248   1.000000   1.000000
   18      -14.273844    -14.150247   1.000000   1.000000
   19      -14.069443    -13.919190   1.000000   1.000000
   20      -14.069443    -13.919189   1.000000   1.000000
   21      -13.880389    -13.728905   1.000000   1.000000
   22      -13.880388    -13.728904   1.000000   1.000000
   23      -13.776432    -13.624674   1.000000   1.000000
   24      -13.776431    -13.624674   1.000000   1.000000
   25      -13.580996    -13.479304   1.000000   1.000000
   26      -13.580995    -13.479304   1.000000   1.000000
   27      -13.563996    -13.443137   1.000000   1.000000
   28      -13.563995    -13.443137   1.000000   1.000000
   29       -2.955985     -2.817961   1.000000   1.000000
   30       -2.955984     -2.817960   1.000000   1.000000
   31       -2.836230     -2.686084   1.000000   1.000000
   32       -2.836230     -2.686083   1.000000   1.000000
   33       -2.760458     -2.483061   1.000000   1.000000
   34       -2.760458     -2.483060   1.000000   1.000000
   35       -2.267756     -2.062702   1.000000   1.000000
   36       -2.267755     -2.062702   1.000000   1.000000
   37       -2.153588     -1.978385   1.000000   1.000000
   38       -2.153587     -1.978384   1.000000   1.000000
   39       -1.899933     -1.331306   1.000000   1.000000
   40       -1.899930     -1.331306   1.000000   1.000000
   41       -1.830698     -1.225821   1.000000   1.000000
   42       -1.830694     -1.225820   1.000000   1.000000
   43       -1.364898     -1.032256   1.000000   1.000000
   44       -1.364897     -1.032256   1.000000   1.000000
   45       -1.281932     -0.958946   1.000000   1.000000
   46       -1.281931     -0.958945   1.000000   1.000000
   47       -1.122845     -0.804244   1.000000   1.000000
   48       -1.122845     -0.804243   1.000000   1.000000
   49       -0.873395     -0.692868   1.000000   1.000000
   50       -0.873394     -0.692867   1.000000   1.000000
   51       -0.751486     -0.085423   1.000000   1.000000
   52       -0.751484     -0.085423   1.000000   1.000000
   53       -0.559653      0.046512   1.000000   1.000000
   54       -0.559650      0.046513   1.000000   1.000000
   55       -0.351970      0.300927   1.000000   1.000000
   56       -0.351968      0.300928   1.000000   1.000000
   57        0.575925      0.924623   1.000000   1.000000
   58        0.575927      0.924624   1.000000   1.000000
   59        0.698398      1.069877   1.000000   1.000000
   60        0.698400      1.069879   1.000000   1.000000
   61        0.747778      1.207614   1.000000   1.000000
   62        0.747779      1.207614   1.000000   1.000000
   63        0.997836      1.338135   1.000000   1.000000
   64        0.997838      1.338135   1.000000   1.000000
   65        1.030145      1.555154   1.000000   1.000000
   66        1.030146      1.555155   1.000000   1.000000
   67        1.345487      1.667542   1.000000   1.000000
   68        1.345488      1.667543   1.000000   1.000000
   69        1.351821      1.753579   1.000000   1.000000
   70        1.351821      1.753579   1.000000   1.000000
   71        1.580348      2.138067   1.000000   1.000000
   72        1.580350      2.138068   1.000000   1.000000
   73        1.735901      2.251467   1.000000   1.000000
   74        1.735909      2.251468   1.000000   1.000000
   75        1.982382      2.518484   1.000000   1.000000
   76        1.982384      2.518487   1.000000   1.000000
   77        2.005370      2.985510   1.000000   1.000000
   78        2.005377      2.985512   1.000000   1.000000
   79        2.066577      3.058205   1.000000   1.000000
   80        2.066578      3.058213   1.000000   1.000000
   81        2.124406      3.201117   1.000000   1.000000
   82        2.124413      3.201121   1.000000   1.000000
   83        2.504027      3.335443   1.000000   1.000000
   84        2.504027      3.335448   1.000000   1.000000
   85        2.676359      3.370503   1.000000   1.000000
   86        2.676364      3.370509   1.000000   1.000000
   87        2.803224      3.454158   1.000000   1.000000
   88        2.803226      3.454165   1.000000   1.000000
   89        3.105454      5.206553   1.000000   0.000000
   90        3.105459      5.206556   1.000000   0.000000
   91        3.167370      5.578526   1.000000   0.000000
   92        3.167371      5.578530   1.000000   0.000000
   93        3.354315      6.033093   1.000000   0.000000
   94        3.354318      6.033097   1.000000   0.000000
   95        3.640542      6.188766   1.000000   0.000000
   96        3.640544      6.188769   1.000000   0.000000
   97        6.185378      6.434995   0.000000   0.000000
   98        6.185379      6.434996   0.000000   0.000000
   99        6.242641      6.469729   0.000000   0.000000
  100        6.242642      6.469731   0.000000   0.000000
  101        6.472896      6.950604   0.000000   0.000000
  102        6.472897      6.950606   0.000000   0.000000
  103        6.637608      7.340711   0.000000   0.000000
  104        6.637609      7.340714   0.000000   0.000000
  105        7.121691      7.641469   0.000000   0.000000
  106        7.121692      7.641470   0.000000   0.000000
  107        7.341848      7.744991   0.000000   0.000000
  108        7.341849      7.744993   0.000000   0.000000
  109       10.297933     10.391937   0.000000   0.000000
  110       10.297935     10.391939   0.000000   0.000000
  111       10.504897     10.645701   0.000000   0.000000
  112       10.504899     10.645703   0.000000   0.000000
  113       10.863907     10.978945   0.000000   0.000000
  114       10.863908     10.978946   0.000000   0.000000
  115       11.218726     11.362192   0.000000   0.000000
  116       11.218728     11.362195   0.000000   0.000000
  117       11.671533     11.763867   0.000000   0.000000
  118       11.671536     11.763870   0.000000   0.000000
  119       13.771386     13.921361   0.000000   0.000000
  120       13.771390     13.921375   0.000000   0.000000
 
  0.0000000E+00  0.1250000E+00  0.0000000E+00  0.7812500E-02
    1      -60.290857    -58.304193   1.000000   1.000000
    2      -60.290729    -58.304059   1.000000   1.000000
    3      -60.283958    -58.296074   1.000000   1.000000
    4      -60.283934    -58.296025   1.000000   1.000000
    5      -60.259333    -58.288272   1.000000   1.000000
    6      -60.259268    -58.288222   1.000000   1.000000
    7      -60.255980    -58.284472   1.000000   1.000000
    8      -60.255966    -58.284458   1.000000   1.000000
    9      -60.248624    -58.278764   1.000000   1.000000
   10      -60.248454    -58.278675   1.000000   1.000000
   11      -60.248319    -58.278577   1.000000   1.000000
   12      -60.248300    -58.278374   1.000000   1.000000
   13      -15.494811    -15.386077   1.000000   1.000000
   14      -14.981367    -14.879972   1.000000   1.000000
   15      -14.595653    -14.451392   1.000000   1.000000
   16      -14.305421    -14.198265   1.000000   1.000000
   17      -14.278546    -14.138415   1.000000   1.000000
   18      -14.180866    -14.071053   1.000000   1.000000
   19      -14.096931    -13.940210   1.000000   1.000000
   20      -13.984769    -13.836213   1.000000   1.000000
   21      -13.940340    -13.791389   1.000000   1.000000
   22      -13.878452    -13.731023   1.000000   1.000000
   23      -13.846140    -13.693701   1.000000   1.000000
   24      -13.748920    -13.651239   1.000000   1.000000
   25      -13.712697    -13.558981   1.000000   1.000000
   26      -13.601112    -13.487032   1.000000   1.000000
   27      -13.500831    -13.372938   1.000000   1.000000
   28      -13.394134    -13.284501   1.000000   1.000000
   29       -3.184152     -3.036769   1.000000   1.000000
   30       -2.953494     -2.816988   1.000000   1.000000
   31       -2.881052     -2.749593   1.000000   1.000000
   32       -2.653914     -2.529289   1.000000   1.000000
   33       -2.626830     -2.366007   1.000000   1.000000
   34       -2.476094     -2.211010   1.000000   1.000000
   35       -2.406634     -2.182162   1.000000   1.000000
   36       -2.241632     -1.968019   1.000000   1.000000
   37       -2.181903     -1.951569   1.000000   1.000000
   38       -2.144752     -1.939071   1.000000   1.000000
   39       -2.030605     -1.559345   1.000000   1.000000
   40       -1.990208     -1.508207   1.000000   1.000000
   41       -1.694168     -1.316742   1.000000   1.000000
   42       -1.663885     -1.303641   1.000000   1.000000
   43       -1.655241     -1.182980   1.000000   1.000000
   44       -1.604007     -0.934655   1.000000   1.000000
   45       -1.457324     -0.895246   1.000000   1.000000
   46       -1.349115     -0.843093   1.000000   1.000000
   47       -1.315669     -0.753091   1.000000   1.000000
   48       -0.842235     -0.672831   1.000000   1.000000
   49       -0.806488     -0.589265   1.000000   1.000000
   50       -0.798949     -0.336819   1.000000   1.000000
   51       -0.588982     -0.240695   1.000000   1.000000
   52       -0.287917      0.108457   1.000000   1.000000
   53       -0.233972      0.157710   1.000000   1.000000
   54       -0.119193      0.205790   1.000000   1.000000
   55       -0.077212      0.365126   1.000000   1.000000
   56        0.015748      0.551374   1.000000   1.000000
   57        0.082789      0.583916   1.000000   1.000000
   58        0.176735      0.692367   1.000000   1.000000
   59        0.379920      0.734124   1.000000   1.000000
   60        0.427081      1.005850   1.000000   1.000000
   61        0.445752      1.031295   1.000000   1.000000
   62        0.614807      1.047769   1.000000   1.000000
   63        0.783793      1.193617   1.000000   1.000000
   64        0.833473      1.337898   1.000000   1.000000
   65        0.961368      1.363873   1.000000   1.000000
   66        1.000523      1.382694   1.000000   1.000000
   67        1.201803      1.522230   1.000000   1.000000
   68        1.209593      1.590470   1.000000   1.000000
   69        1.367411      1.803530   1.000000   1.000000
   70        1.491193      1.928880   1.000000   1.000000
   71        1.508414      2.034773   1.000000   1.000000
   72        1.545692      2.119386   1.000000   1.000000
   73        1.762015      2.412201   1.000000   1.000000
   74        1.774998      2.412221   1.000000   1.000000
   75        1.838873      2.669093   1.000000   1.000000
   76        1.949384      2.755751   1.000000   1.000000
   77        2.115788      2.873008   1.000000   1.000000
   78        2.172070      2.979461   1.000000   1.000000
   79        2.190558      3.122733   1.000000   1.000000
   80        2.257476      3.161668   1.000000   1.000000
   81        2.353266      3.171622   1.000000   1.000000
   82        2.397704      3.216868   1.000000   1.000000
   83        2.414848      3.241090   1.000000   1.000000
   84        2.458434      3.244098   1.000000   1.000000
   85        2.633387      3.301076   1.000000   1.000000
   86        2.682689      3.441470   1.000000   1.000000
   87        2.741326      3.495116   1.000000   1.000000
   88        2.900751      3.634659   1.000000   1.000000
   89        3.013405      4.974955   1.000000   0.000000
   90        3.059716      5.427130   1.000000   0.000000
   91        3.098714      5.532238   1.000000   0.000000
   92        3.105626      5.699911   1.000000   0.000000
   93        3.257386      5.899215   1.000000   0.000000
   94        3.610169      5.922958   1.000000   0.000000
   95        3.624229      6.006911   1.000000   0.000000
   96        3.722786      6.409596   1.000000   0.000000
   97        6.145049      6.477750   0.000000   0.000000
   98        6.165888      6.484803   0.000000   0.000000
   99        6.280712      6.529755   0.000000   0.000000
  100        6.317590      6.670327   0.000000   0.000000
  101        6.364128      6.830664   0.000000   0.000000
  102        6.383539      6.984578   0.000000   0.000000
  103        6.750525      7.216893   0.000000   0.000000
  104        6.806325      7.251362   0.000000   0.000000
  105        6.860145      7.511836   0.000000   0.000000
  106        7.237143      7.695900   0.000000   0.000000
  107        7.256933      7.787467   0.000000   0.000000
  108        7.412923      7.821594   0.000000   0.000000
  109        9.893849     10.025117   0.000000   0.000000
  110       10.368926     10.475083   0.000000   0.000000
  111       10.434509     10.513498   0.000000   0.000000
  112       10.540611     10.679870   0.000000   0.000000
  113       10.817469     10.937623   0.000000   0.000000
  114       11.026506     11.161855   0.000000   0.000000
  115       11.279171     11.424712   0.000000   0.000000
  116       11.373441     11.467848   0.000000   0.000000
  117       11.796508     11.874735   0.000000   0.000000
  118       12.299411     12.400032   0.000000   0.000000
  119       12.655206     12.863403   0.000000   0.000000
  120       14.412086     14.592079   0.000000   0.000000
 
  0.2500000E+00  0.1250000E+00  0.0000000E+00  0.7812500E-02
    1      -60.290800    -58.304122   1.000000   1.000000
    2      -60.290755    -58.304084   1.000000   1.000000
    3      -60.283941    -58.296056   1.000000   1.000000
    4      -60.283877    -58.295942   1.000000   1.000000
    5      -60.259230    -58.288166   1.000000   1.000000
    6      -60.259194    -58.288120   1.000000   1.000000
    7      -60.255946    -58.284438   1.000000   1.000000
    8      -60.255927    -58.284426   1.000000   1.000000
    9      -60.248583    -58.278700   1.000000   1.000000
   10      -60.248375    -58.278620   1.000000   1.000000
   11      -60.248361    -58.278433   1.000000   1.000000
   12      -60.248164    -58.278398   1.000000   1.000000
   13      -15.445311    -15.336474   1.000000   1.000000
   14      -15.111092    -15.004289   1.000000   1.000000
   15      -14.489705    -14.351755   1.000000   1.000000
   16      -14.297138    -14.184421   1.000000   1.000000
   17      -14.293222    -14.159558   1.000000   1.000000
   18      -14.205471    -14.094491   1.000000   1.000000
   19      -14.083632    -13.926820   1.000000   1.000000
   20      -14.005172    -13.852788   1.000000   1.000000
   21      -13.932883    -13.785378   1.000000   1.000000
   22      -13.886425    -13.739228   1.000000   1.000000
   23      -13.817775    -13.667108   1.000000   1.000000
   24      -13.734079    -13.612469   1.000000   1.000000
   25      -13.694504    -13.564107   1.000000   1.000000
   26      -13.585979    -13.469561   1.000000   1.000000
   27      -13.513399    -13.387319   1.000000   1.000000
   28      -13.445496    -13.336999   1.000000   1.000000