   24   24    1    2
  0.1055123E+02  0.9097362E-09  0.5635252E-09  0.4939867E-09  0.5000000E-15
  1.000000000000000E-004
  CAR 
 NiWO4                                   
    184    132    120
 
  0.0000000E+00  0.0000000E+00  0.0000000E+00  0.3906250E-02
    1      -60.343872    -58.269941   1.000000   1.000000
    2      -60.343792    -58.269845   1.000000   1.000000
    3      -60.337134    -58.262162   1.000000   1.000000
    4      -60.337057    -58.262159   1.000000   1.000000
    5      -60.315494    -58.256072   1.000000   1.000000
    6      -60.315288    -58.255830   1.000000   1.000000
    7      -60.312074    -58.252188   1.000000   1.000000
    8      -60.311948    -58.252026   1.000000   1.000000
    9      -60.293309    -58.241025   1.000000   1.000000
   10      -60.293121    -58.240784   1.000000   1.000000
   11      -60.292994    -58.240676   1.000000   1.000000
   12      -60.292869    -58.240524   1.000000   1.000000
   13      -15.492490    -15.406457   1.000000   1.000000
   14      -14.966569    -14.887389   1.000000   1.000000
   15      -14.515871    -14.396626   1.000000   1.000000
   16      -14.275748    -14.193974   1.000000   1.000000
   17      -14.205803    -14.089401   1.000000   1.000000
   18      -14.100689    -13.991688   1.000000   1.000000
   19      -14.074180    -13.939900   1.000000   1.000000
   20      -13.933111    -13.797879   1.000000   1.000000
   21      -13.878202    -13.742067   1.000000   1.000000
   22      -13.845421    -13.711940   1.000000   1.000000
   23      -13.808582    -13.671952   1.000000   1.000000
   24      -13.718242    -13.636364   1.000000   1.000000
   25      -13.669179    -13.527623   1.000000   1.000000
   26      -13.582394    -13.496248   1.000000   1.000000
   27      -13.492927    -13.366841   1.000000   1.000000
   28      -13.371494    -13.285487   1.000000   1.000000
   29       -3.260249     -3.110749   1.000000   1.000000
   30       -2.953539     -2.816147   1.000000   1.000000
   31       -2.872827     -2.671580   1.000000   1.000000
   32       -2.796331     -2.520475   1.000000   1.000000
   33       -2.607944     -2.413046   1.000000   1.000000
   34       -2.509659     -2.274952   1.000000   1.000000
   35       -2.483305     -2.129821   1.000000   1.000000
   36       -2.458980     -2.119419   1.000000   1.000000
   37       -2.414912     -2.070295   1.000000   1.000000
   38       -2.337483     -1.883213   1.000000   1.000000
   39       -2.204590     -1.612839   1.000000   1.000000
   40       -2.108597     -1.458453   1.000000   1.000000
   41       -2.083595     -1.289033   1.000000   1.000000
   42       -2.006243     -1.286657   1.000000   1.000000
   43       -1.959295     -1.244328   1.000000   1.000000
   44       -1.943105     -0.945601   1.000000   1.000000
   45       -1.688657     -0.909347   1.000000   1.000000
   46       -1.577120     -0.842722   1.000000   1.000000
   47       -1.450474     -0.817443   1.000000   1.000000
   48       -1.017247     -0.685633   1.000000   1.000000
   49       -0.827471     -0.305597   1.000000   1.000000
   50       -0.805753     -0.277789   1.000000   1.000000
   51       -0.520795     -0.028303   1.000000   1.000000
   52       -0.464767      0.099993   1.000000   1.000000
   53       -0.388701      0.120441   1.000000   1.000000
   54       -0.376209      0.200065   1.000000   1.000000
   55       -0.278246      0.396023   1.000000   1.000000
   56       -0.209696      0.478776   1.000000   1.000000
   57        0.003472      0.521883   1.000000   1.000000
   58        0.068928      0.646550   1.000000   1.000000
   59        0.232505      0.705474   1.000000   1.000000
   60        0.244435      0.841848   1.000000   1.000000
   61        0.270170      0.884601   1.000000   1.000000
   62        0.385460      1.044570   1.000000   1.000000
   63        0.453651      1.113058   1.000000   1.000000
   64        0.492341      1.352177   1.000000   1.000000
   65        0.666782      1.359825   1.000000   1.000000
   66        0.686288      1.495577   1.000000   1.000000
   67        0.826867      1.505064   1.000000   1.000000
   68        0.866901      1.646637   1.000000   1.000000
   69        0.892984      1.725133   1.000000   1.000000
   70        0.910923      1.880442   1.000000   1.000000
   71        1.067444      1.902664   1.000000   1.000000
   72        1.132014      2.073202   1.000000   1.000000
   73        1.199584      2.074606   1.000000   1.000000
   74        1.259762      2.147474   1.000000   1.000000
   75        1.446625      2.203852   1.000000   1.000000
   76        1.454650      2.240994   1.000000   1.000000
   77        1.601805      2.282952   1.000000   1.000000
   78        1.646350      2.556478   1.000000   1.000000
   79        1.812335      2.577321   1.000000   1.000000
   80        2.053134      2.584176   1.000000   1.000000
   81        2.105057      2.637801   1.000000   1.000000
   82        2.141649      2.643680   1.000000   1.000000
   83        2.146264      2.689634   1.000000   1.000000
   84        2.285088      2.803468   1.000000   1.000000
   85        2.375235      2.858371   1.000000   1.000000
   86        2.386404      2.927975   1.000000   1.000000
   87        2.509103      3.090081   1.000000   1.000000
   88        2.610857      3.186316   1.000000   1.000000
   89        2.704283      5.182318   1.000000   0.000000
   90        2.826830      5.808677   1.000000   0.000000
   91        2.840991      5.841417   1.000000   0.000000
   92        2.911888      6.008212   1.000000   0.000000
   93        2.936940      6.096766   1.000000   0.000000
   94        3.369501      6.146524   1.000000   0.000000
   95        3.382291      6.179477   1.000000   0.000000
   96        3.429009      6.448824   1.000000   0.000000
   97        6.098981      6.514021   0.000000   0.000000
   98        6.149320      6.743401   0.000000   0.000000
   99        6.242060      6.753195   0.000000   0.000000
  100        6.282017      7.101786   0.000000   0.000000
  101        6.343882      7.184167   0.000000   0.000000
  102        6.554313      7.251908   0.000000   0.000000
  103        6.659386      7.566889   0.000000   0.000000
  104        6.732307      7.641505   0.000000   0.000000
  105        6.749136      7.696884   0.000000   0.000000
  106        7.225237      7.894068   0.000000   0.000000
  107        7.255613      8.074512   0.000000   0.000000
  108        7.389222      8.089895   0.000000   0.000000
  109        9.745315      9.873425   0.000000   0.000000
  110       10.343518     10.405373   0.000000   0.000000
  111       10.348645     10.469622   0.000000   0.000000
  112       10.682501     10.826902   0.000000   0.000000
  113       11.020052     11.122777   0.000000   0.000000
  114       11.060918     11.188978   0.000000   0.000000
  115       11.161594     11.351735   0.000000   0.000000
  116       11.344243     11.431449   0.000000   0.000000
  117       11.795608     11.865946   0.000000   0.000000
  118       12.199318     12.286939   0.000000   0.000000
  119       12.459391     12.667521   0.000000   0.000000
  120       14.358050     14.608295   0.000000   0.000000
 
  0.2500000E+00  0.0000000E+00  0.0000000E+00  0.7812500E-02
    1      -60.343834    -58.269891   1.000000   1.000000
    2      -60.343763    -58.269814   1.000000   1.000000
    3      -60.337144    -58.262257   1.000000   1.000000
    4      -60.337051    -58.262094   1.000000   1.000000
    5      -60.315428    -58.255994   1.000000   1.000000
    6      -60.315297    -58.255849   1.000000   1.000000
    7      -60.312126    -58.252231   1.000000   1.000000
    8      -60.311990    -58.252103   1.000000   1.000000
    9      -60.293309    -58.241004   1.000000   1.000000
   10      -60.293152    -58.240838   1.000000   1.000000
   11      -60.293021    -58.240720   1.000000   1.000000
   12      -60.292746    -58.240386   1.000000   1.000000
   13      -15.441622    -15.355579   1.000000   1.000000
   14      -15.097811    -15.014086   1.000000   1.000000
   15      -14.399176    -14.284212   1.000000   1.000000
   16      -14.266528    -14.180755   1.000000   1.000000
   17      -14.217245    -14.107357   1.000000   1.000000
   18      -14.137403    -14.027086   1.000000   1.000000
   19      -14.061719    -13.927659   1.000000   1.000000
   20      -13.973218    -13.839289   1.000000   1.000000
   21      -13.863516    -13.727841   1.000000   1.000000
   22      -13.816271    -13.680019   1.000000   1.000000
   23      -13.800402    -13.664566   1.000000   1.000000
   24      -13.687013    -13.590245   1.000000   1.000000
   25      -13.672274    -13.546249   1.000000   1.000000
   26      -13.567827    -13.474451   1.000000   1.000000
   27      -13.504928    -13.383686   1.000000   1.000000
   28      -13.424962    -13.339846   1.000000   1.000000
   29       -3.178974     -3.032449   1.000000   1.000000
   30       -2.928273     -2.783070   1.000000   1.000000
   31       -2.892615     -2.629842   1.000000   1.000000
   32       -2.871562     -2.569654   1.000000   1.000000
   33       -2.678407     -2.544930   1.000000   1.000000
   34       -2.675677     -2.323778   1.000000   1.000000
   35       -2.467390     -2.277226   1.000000   1.000000
   36       -2.384376     -2.067336   1.000000   1.000000
   37       -2.357738     -1.929729   1.000000   1.000000
   38       -2.288612     -1.894514   1.000000   1.000000
   39       -2.170596     -1.435336   1.000000   1.000000
   40       -2.151097     -1.420002   1.000000   1.000000
   41       -2.132503     -1.307838   1.000000   1.000000
   42       -2.122100     -1.271912   1.000000   1.000000
   43       -1.867684     -1.192463   1.000000   1.000000
   44       -1.654319     -0.941134   1.000000   1.000000
   45       -1.580782     -0.900486   1.000000   1.000000
   46       -1.400180     -0.877868   1.000000   1.000000
   47       -1.345688     -0.815996   1.000000   1.000000
   48       -1.146518     -0.729830   1.000000   1.000000
   49       -1.050783     -0.655479   1.000000   1.000000
   50       -0.863183     -0.337119   1.000000   1.000000
   51       -0.779307     -0.049416   1.000000   1.000000
   52       -0.712432     -0.017605   1.000000   1.000000
   53       -0.546792      0.171343   1.000000   1.000000
   54       -0.542483      0.181090   1.000000   1.000000
   55       -0.497379      0.262860   1.000000   1.000000
   56       -0.163630      0.316199   1.000000   1.000000
   57        0.187898      0.671658   1.000000   1.000000
   58        0.293048      0.894422   1.000000   1.000000
   59        0.298477      0.926066   1.000000   1.000000
   60        0.349133      0.975642   1.000000   1.000000
   61        0.375192      1.069378   1.000000   1.000000
   62        0.442724      1.097081   1.000000   1.000000
   63        0.449629      1.222187   1.000000   1.000000
   64        0.595736      1.228130   1.000000   1.000000
   65        0.684362      1.330109   1.000000   1.000000
   66        0.773693      1.415645   1.000000   1.000000
   67        0.892442      1.611072   1.000000   1.000000
   68        0.903282      1.619287   1.000000   1.000000
   69        0.930908      1.781283   1.000000   1.000000
   70        0.992731      1.824821   1.000000   1.000000
   71        1.056054      1.952560   1.000000   1.000000
   72        1.193242      1.988274   1.000000   1.000000
   73        1.261293      2.023616   1.000000   1.000000
   74        1.293499      2.158016   1.000000   1.000000
   75        1.376247      2.165065   1.000000   1.000000
   76        1.479404      2.288892   1.000000   1.000000
   77        1.590500      2.296164   1.000000   1.000000
   78        1.607693      2.424506   1.000000   1.000000
   79        1.705534      2.493419   1.000000   1.000000
   80        1.754588      2.570485   1.000000   1.000000
   81        2.018664      2.577224   1.000000   1.000000
   82        2.134335      2.586293   1.000000   1.000000
   83        2.173684      2.790363   1.000000   1.000000
   84        2.335516      2.853109   1.000000   1.000000
   85        2.380309      2.893609   1.000000   1.000000
   86        2.509419      2.926464   1.000000   1.000000
   87        2.634363      3.027913   1.000000   1.000000
   88        2.637986      3.131037   1.000000   1.000000
   89        2.763057      5.263128   1.000000   0.000000
   90        2.806289      5.660602   1.000000   0.000000
   91        2.814199      5.848766   1.000000   0.000000
   92        2.819176      6.048970   1.000000   0.000000
   93        2.879424      6.147723   1.000000   0.000000
   94        3.319420      6.150024   1.000000   0.000000
   95        3.331476      6.237016   1.000000   0.000000
   96        3.383992      6.414344   1.000000   0.000000
   97        6.120666      6.522784   0.000000   0.000000
   98        6.176600      6.705273   0.000000   0.000000
   99        6.222397      6.756933   0.000000   0.000000
  100        6.314414      6.994961   0.000000   0.000000
  101        6.320757      7.140116   0.000000   0.000000
  102        6.514459      7.436134   0.000000   0.000000
  103        6.640572      7.446117   0.000000   0.000000
  104        6.647469      7.614831   0.000000   0.000000
  105        6.913665      7.869198   0.000000   0.000000
  106        7.213143      7.891779   0.000000   0.000000
  107        7.263817      8.036339   0.000000   0.000000
  108        7.373757      8.072300   0.000000   0.000000
  109        9.963876     10.091872   0.000000   0.000000
  110       10.310094     10.381562   0.000000   0.000000
  111       10.319012     10.432860   0.000000   0.000000
  112       10.696395     10.839622   0.000000   0.000000
  113       10.934989     11.045308   0.000000   0.000000
  114       11.130023     11.261849   0.000000   0.000000
  115       11.195447     11.371564   0.000000   0.000000
  116       11.420810     11.536560   0.000000   0.000000
  117       11.469860     11.556873   0.000000   0.000000
  118       11.800058     11.887017   0.000000   0.000000
  119       13.129974     13.291779   0.000000   0.000000
  120       14.287805     14.411851   0.000000   0.000000
 
  0.5000000E+00  0.0000000E+00  0.0000000E+00  0.3906250E-02
    1      -60.343787    -58.269837   1.000000   1.000000
    2      -60.343786    -58.269836   1.000000   1.000000
    3      -60.337038    -58.262100   1.000000   1.000000
    4      -60.337037    -58.262099   1.000000   1.000000
    5      -60.315291    -58.255848   1.000000   1.000000
    6      -60.315289    -58.255847   1.000000   1.000000
    7      -60.312038    -58.252156   1.000000   1.000000
    8      -60.312036    -58.252155   1.000000   1.000000
    9      -60.293198    -58.240861   1.000000   1.000000
   10      -60.293196    -58.240860   1.000000   1.000000
   11      -60.292753    -58.240380   1.000000   1.000000
   12      -60.292752    -58.240379   1.000000   1.000000
   13      -15.298264    -15.212506   1.000000   1.000000
   14      -15.298263    -15.212506   1.000000   1.000000
   15      -14.242905    -14.146265   1.000000   1.000000
   16      -14.242904    -14.146264   1.000000   1.000000
   17      -14.239546    -14.127136   1.000000   1.000000
   18      -14.239545    -14.127136   1.000000   1.000000
   19      -14.025957    -13.892287   1.000000   1.000000
   20      -14.025957    -13.892286   1.000000   1.000000
   21      -13.836750    -13.701032   1.000000   1.000000
   22      -13.836750    -13.701032   1.000000   1.000000
   23      -13.735370    -13.596713   1.000000   1.000000
   24      -13.735369    -13.596712   1.000000   1.000000
   25      -13.552199    -13.469070   1.000000   1.000000
   26      -13.552198    -13.469068   1.000000   1.000000
   27      -13.535089    -13.426656   1.000000   1.000000
   28      -13.535088    -13.426655   1.000000   1.000000
   29       -2.961615     -2.827380   1.000000   1.000000
   30       -2.961615     -2.827379   1.000000   1.000000
   31       -2.929748     -2.693609   1.000000   1.000000
   32       -2.929748     -2.693608   1.000000   1.000000
   33       -2.811065     -2.480231   1.000000   1.000000
   34       -2.811065     -2.480231   1.000000   1.000000
   35       -2.398617     -2.070564   1.000000   1.000000
   36       -2.398617     -2.070564   1.000000   1.000000
   37       -2.259320     -2.016056   1.000000   1.000000
   38       -2.259320     -2.016056   1.000000   1.000000
   39       -2.171564     -1.303917   1.000000   1.000000
   40       -2.171563     -1.303917   1.000000   1.000000
   41       -2.153313     -1.180786   1.000000   1.000000
   42       -2.153312     -1.180785   1.000000   1.000000
   43       -1.592621     -1.024400   1.000000   1.000000
   44       -1.592621     -1.024400   1.000000   1.000000
   45       -1.392278     -0.991297   1.000000   1.000000
   46       -1.392277     -0.991297   1.000000   1.000000
   47       -1.181027     -0.771313   1.000000   1.000000
   48       -1.181027     -0.771313   1.000000   1.000000
   49       -1.081699     -0.720617   1.000000   1.000000
   50       -1.081698     -0.720617   1.000000   1.000000
   51       -0.891829     -0.074636   1.000000   1.000000
   52       -0.891829     -0.074635   1.000000   1.000000
   53       -0.822574      0.098805   1.000000   1.000000
   54       -0.822574      0.098806   1.000000   1.000000
   55       -0.437865      0.285629   1.000000   1.000000
   56       -0.437864      0.285630   1.000000   1.000000
   57        0.427288      0.951269   1.000000   1.000000
   58        0.427288      0.951270   1.000000   1.000000
   59        0.437873      1.039534   1.000000   1.000000
   60        0.437873      1.039535   1.000000   1.000000
   61        0.454505      1.203882   1.000000   1.000000
   62        0.454505      1.203884   1.000000   1.000000
   63        0.590815      1.265512   1.000000   1.000000
   64        0.590816      1.265513   1.000000   1.000000
   65        0.667930      1.473381   1.000000   1.000000
   66        0.667931      1.473381   1.000000   1.000000
   67        0.933317      1.543456   1.000000   1.000000
   68        0.933317      1.543457   1.000000   1.000000
   69        1.106281      1.785958   1.000000   1.000000
   70        1.106281      1.785958   1.000000   1.000000
   71        1.156193      1.856912   1.000000   1.000000
   72        1.156194      1.856912   1.000000   1.000000
   73        1.321859      2.078907   1.000000   1.000000
   74        1.321860      2.078908   1.000000   1.000000
   75        1.464177      2.250926   1.000000   1.000000
   76        1.464177      2.250926   1.000000   1.000000
   77        1.503705      2.349393   1.000000   1.000000
   78        1.503705      2.349394   1.000000   1.000000
   79        1.599966      2.451861   1.000000   1.000000
   80        1.599966      2.451862   1.000000   1.000000
   81        2.041433      2.554920   1.000000   1.000000
   82        2.041433      2.554921   1.000000   1.000000
   83        2.264879      2.858384   1.000000   1.000000
   84        2.264879      2.858385   1.000000   1.000000
   85        2.441953      2.938032   1.000000   1.000000
   86        2.441954      2.938032   1.000000   1.000000
   87        2.579721      3.016392   1.000000   1.000000
   88        2.579722      3.016392   1.000000   1.000000
   89        2.811161      5.450012   1.000000   0.000000
   90        2.811161      5.450014   1.000000   0.000000
   91        2.864449      5.922190   1.000000   0.000000
   92        2.864450      5.922190   1.000000   0.000000
   93        3.053497      6.226206   1.000000   0.000000
   94        3.053497      6.226207   1.000000   0.000000
   95        3.327456      6.313776   1.000000   0.000000
   96        3.327456      6.313777   1.000000   0.000000
   97        6.171895      6.595542   0.000000   0.000000
   98        6.171896      6.595543   0.000000   0.000000
   99        6.244959      6.833244   0.000000   0.000000
  100        6.244960      6.833245   0.000000   0.000000
  101        6.416663      7.255435   0.000000   0.000000
  102        6.416664      7.255435   0.000000   0.000000
  103        6.626737      7.608632   0.000000   0.000000
  104        6.626739      7.608633   0.000000   0.000000
  105        7.090529      7.910264   0.000000   0.000000
  106        7.090531      7.910265   0.000000   0.000000
  107        7.329286      8.028808   0.000000   0.000000
  108        7.329288      8.028809   0.000000   0.000000
  109       10.286469     10.379677   0.000000   0.000000
  110       10.286471     10.379679   0.000000   0.000000
  111       10.520984     10.657328   0.000000   0.000000
  112       10.520985     10.657329   0.000000   0.000000
  113       10.862407     10.980544   0.000000   0.000000
  114       10.862409     10.980546   0.000000   0.000000
  115       11.211619     11.361102   0.000000   0.000000
  116       11.211622     11.361105   0.000000   0.000000
  117       11.662856     11.748815   0.000000   0.000000
  118       11.662859     11.748818   0.000000   0.000000
  119       13.787316     13.936453   0.000000   0.000000
  120       13.787317     13.936453   0.000000   0.000000
 
  0.0000000E+00  0.1250000E+00  0.0000000E+00  0.7812500E-02
    1      -60.343856    -58.269921   1.000000   1.000000
    2      -60.343725    -58.269779   1.000000   1.000000
    3      -60.337114    -58.262209   1.000000   1.000000
    4      -60.337090    -58.262162   1.000000   1.000000
    5      -60.315409    -58.255977   1.000000   1.000000
    6      -60.315345    -58.255930   1.000000   1.000000
    7      -60.312063    -58.252171   1.000000   1.000000
    8      -60.312059    -58.252164   1.000000   1.000000
    9      -60.293353    -58.241033   1.000000   1.000000
   10      -60.293117    -58.240808   1.000000   1.000000
   11      -60.292985    -58.240654   1.000000   1.000000
   12      -60.292896    -58.240529   1.000000   1.000000
   13      -15.457403    -15.371610   1.000000   1.000000
   14      -14.949629    -14.868615   1.000000   1.000000
   15      -14.542006    -14.425012   1.000000   1.000000
   16      -14.271209    -14.185462   1.000000   1.000000
   17      -14.239647    -14.115039   1.000000   1.000000
   18      -14.152244    -14.058738   1.000000   1.000000
   19      -14.054769    -13.911715   1.000000   1.000000
   20      -13.939514    -13.809988   1.000000   1.000000
   21      -13.891957    -13.764186   1.000000   1.000000
   22      -13.835439    -13.704066   1.000000   1.000000
   23      -13.806331    -13.664515   1.000000   1.000000
   24      -13.722662    -13.642567   1.000000   1.000000
   25      -13.669575    -13.530787   1.000000   1.000000
   26      -13.568022    -13.472391   1.000000   1.000000
   27      -13.475558    -13.354728   1.000000   1.000000
   28      -13.363823    -13.271664   1.000000   1.000000
   29       -3.198185     -3.049675   1.000000   1.000000
   30       -2.951759     -2.822619   1.000000   1.000000
   31       -2.906061     -2.767166   1.000000   1.000000
   32       -2.837789     -2.529149   1.000000   1.000000
   33       -2.677857     -2.374970   1.000000   1.000000
   34       -2.530695     -2.218325   1.000000   1.000000
   35       -2.521513     -2.178907   1.000000   1.000000
   36       -2.363436     -1.996361   1.000000   1.000000
   37       -2.343666     -1.955911   1.000000   1.000000
   38       -2.252421     -1.940071   1.000000   1.000000
   39       -2.234760     -1.551254   1.000000   1.000000
   40       -2.198045     -1.535310   1.000000   1.000000
   41       -2.076477     -1.291537   1.000000   1.000000
   42       -1.960960     -1.290176   1.000000   1.000000
   43       -1.852952     -1.167021   1.000000   1.000000
   44       -1.824921     -0.910221   1.000000   1.000000
   45       -1.650836     -0.864633   1.000000   1.000000
   46       -1.602851     -0.817859   1.000000   1.000000
   47       -1.434523     -0.709540   1.000000   1.000000
   48       -0.967395     -0.672983   1.000000   1.000000
   49       -0.883931     -0.598507   1.000000   1.000000
   50       -0.815998     -0.352726   1.000000   1.000000
   51       -0.719224     -0.211452   1.000000   1.000000
   52       -0.489742      0.105554   1.000000   1.000000
   53       -0.450601      0.135734   1.000000   1.000000
   54       -0.366913      0.206271   1.000000   1.000000
   55       -0.273309      0.333245   1.000000   1.000000
   56       -0.152224      0.469020   1.000000   1.000000
   57       -0.082706      0.647885   1.000000   1.000000
   58        0.045869      0.703784   1.000000   1.000000
   59        0.081528      0.708440   1.000000   1.000000
   60        0.268489      0.977762   1.000000   1.000000
   61        0.284853      0.982524   1.000000   1.000000
   62        0.466254      1.044382   1.000000   1.000000
   63        0.571249      1.115880   1.000000   1.000000
   64        0.609917      1.343560   1.000000   1.000000
   65        0.653528      1.360728   1.000000   1.000000
   66        0.767521      1.441485   1.000000   1.000000
   67        0.774248      1.477169   1.000000   1.000000
   68        0.821749      1.482159   1.000000   1.000000
   69        0.896015      1.652394   1.000000   1.000000
   70        0.997508      1.803905   1.000000   1.000000
   71        1.059506      1.874792   1.000000   1.000000
   72        1.142034      1.978005   1.000000   1.000000
   73        1.145298      2.090485   1.000000   1.000000
   74        1.169463      2.138242   1.000000   1.000000
   75        1.265313      2.230640   1.000000   1.000000
   76        1.515382      2.238676   1.000000   1.000000
   77        1.632427      2.394679   1.000000   1.000000
   78        1.640426      2.518478   1.000000   1.000000
   79        1.761113      2.540431   1.000000   1.000000
   80        2.027027      2.557853   1.000000   1.000000
   81        2.068229      2.634670   1.000000   1.000000
   82        2.088235      2.674335   1.000000   1.000000
   83        2.099344      2.719330   1.000000   1.000000
   84        2.327493      2.759889   1.000000   1.000000
   85        2.374867      2.879054   1.000000   1.000000
   86        2.433283      2.897235   1.000000   1.000000
   87        2.630622      3.072033   1.000000   1.000000
   88        2.649696      3.248988   1.000000   1.000000
   89        2.696787      5.246545   1.000000   0.000000
   90        2.733250      5.763319   1.000000   0.000000
   91        2.910008      5.867120   1.000000   0.000000
   92        2.947099      5.901732   1.000000   0.000000
   93        2.953112      6.125786   1.000000   0.000000
   94        3.290502      6.200266   1.000000   0.000000
   95        3.331374      6.201122   1.000000   0.000000
   96        3.363705      6.482749   1.000000   0.000000
   97        6.124839      6.485387   0.000000   0.000000
   98        6.151741      6.700278   0.000000   0.000000
   99        6.277610      6.857056   0.000000   0.000000
  100        6.287063      7.121582   0.000000   0.000000
  101        6.341932      7.185342   0.000000   0.000000
  102        6.365730      7.227260   0.000000   0.000000
  103        6.737762      7.392022   0.000000   0.000000
  104        6.775168      7.619145   0.000000   0.000000
  105        6.829488      7.861051   0.000000   0.000000
  106        7.219820      7.875880   0.000000   0.000000
  107        7.224428      8.052124   0.000000   0.000000
  108        7.404361      8.110254   0.000000   0.000000
  109        9.911351     10.037130   0.000000   0.000000
  110       10.359319     10.473378   0.000000   0.000000
  111       10.425426     10.498958   0.000000   0.000000
  112       10.533716     10.677683   0.000000   0.000000
  113       10.808737     10.932959   0.000000   0.000000
  114       11.026225     11.165753   0.000000   0.000000
  115       11.270715     11.422661   0.000000   0.000000
  116       11.358769     11.447567   0.000000   0.000000
  117       11.791826     11.862421   0.000000   0.000000
  118       12.320563     12.415170   0.000000   0.000000
  119       12.675489     12.876864   0.000000   0.000000
  120       14.431704     14.608903   0.000000   0.000000
 
  0.2500000E+00  0.1250000E+00  0.0000000E+00  0.7812500E-02
    1      -60.343797    -58.269847   1.000000   1.000000
    2      -60.343752    -58.269805   1.000000   1.000000
    3      -60.337096    -58.262193   1.000000   1.000000
    4      -60.337035    -58.262075   1.000000   1.000000
    5      -60.315306    -58.255872   1.000000   1.000000
    6      -60.315273    -58.255827   1.000000   1.000000
    7      -60.312031    -58.252135   1.000000   1.000000
    8      -60.312017    -58.252133   1.000000   1.000000
    9      -60.293313    -58.240980   1.000000   1.000000
   10      -60.293104    -58.240775   1.000000   1.000000
   11      -60.292962    -58.240645   1.000000   1.000000
   12      -60.292761    -58.240389   1.000000   1.000000
   13      -15.407978    -15.322032   1.000000   1.000000
   14      -15.075866    -14.990993   1.000000   1.000000
   15      -14.440280    -14.327627   1.000000   1.000000
   16      -14.259907    -14.171395   1.000000   1.000000
   17      -14.256585    -14.136693   1.000000   1.000000
   18      -14.175542    -14.081726   1.000000   1.000000
   19      -14.041115    -13.898099   1.000000   1.000000
   20      -13.960677    -13.825215   1.000000   1.000000
   21      -13.886317    -13.758416   1.000000   1.000000
   22      -13.843000    -13.712348   1.000000   1.000000
   23      -13.776868    -13.639231   1.000000   1.000000
   24      -13.694768    -13.601470   1.000000   1.000000
   25      -13.664374    -13.538019   1.000000   1.000000
   26      -13.554112    -13.454191   1.000000   1.000000
   27      -13.486978    -13.369517   1.000000   1.000000
   28      -13.415708    -13.324492   1.000000   1.000000