   24   24    1    2
  0.1055123E+02  0.9097362E-09  0.5635252E-09  0.4939867E-09  0.5000000E-15
  1.000000000000000E-004
  CAR 
 NiWO4                                   
    184    132    120
 
  0.0000000E+00  0.0000000E+00  0.0000000E+00  0.3906250E-02
    1      -60.292162    -58.414918   1.000000   1.000000
    2      -60.292077    -58.414882   1.000000   1.000000
    3      -60.283584    -58.405368   1.000000   1.000000
    4      -60.283379    -58.405241   1.000000   1.000000
    5      -60.281278    -58.402655   1.000000   1.000000
    6      -60.281179    -58.402445   1.000000   1.000000
    7      -60.279211    -58.400646   1.000000   1.000000
    8      -60.278756    -58.400225   1.000000   1.000000
    9      -60.256370    -58.396680   1.000000   1.000000
   10      -60.256178    -58.396443   1.000000   1.000000
   11      -60.252609    -58.392571   1.000000   1.000000
   12      -60.252283    -58.392323   1.000000   1.000000
   13      -15.573230    -15.433741   1.000000   1.000000
   14      -15.034036    -14.904815   1.000000   1.000000
   15      -14.639502    -14.455369   1.000000   1.000000
   16      -14.350081    -14.213964   1.000000   1.000000
   17      -14.264699    -14.117704   1.000000   1.000000
   18      -14.188566    -14.030866   1.000000   1.000000
   19      -14.171736    -13.993353   1.000000   1.000000
   20      -14.036023    -13.853634   1.000000   1.000000
   21      -13.987601    -13.801832   1.000000   1.000000
   22      -13.937525    -13.767865   1.000000   1.000000
   23      -13.904517    -13.727628   1.000000   1.000000
   24      -13.771003    -13.648239   1.000000   1.000000
   25      -13.762831    -13.584790   1.000000   1.000000
   26      -13.651193    -13.516073   1.000000   1.000000
   27      -13.545542    -13.399747   1.000000   1.000000
   28      -13.435669    -13.303613   1.000000   1.000000
   29       -3.251020     -3.092622   1.000000   1.000000
   30       -2.926690     -2.785782   1.000000   1.000000
   31       -2.803141     -2.654999   1.000000   1.000000
   32       -2.649180     -2.528724   1.000000   1.000000
   33       -2.514792     -2.388801   1.000000   1.000000
   34       -2.488876     -2.256097   1.000000   1.000000
   35       -2.395513     -2.182084   1.000000   1.000000
   36       -2.316340     -2.122593   1.000000   1.000000
   37       -2.257852     -2.024850   1.000000   1.000000
   38       -2.023532     -1.839094   1.000000   1.000000
   39       -1.936686     -1.641260   1.000000   1.000000
   40       -1.757793     -1.373730   1.000000   1.000000
   41       -1.606028     -1.351224   1.000000   1.000000
   42       -1.601745     -1.335221   1.000000   1.000000
   43       -1.542293     -1.331643   1.000000   1.000000
   44       -1.428150     -0.996458   1.000000   1.000000
   45       -1.415393     -0.990452   1.000000   1.000000
   46       -1.260602     -0.940159   1.000000   1.000000
   47       -1.143744     -0.865138   1.000000   1.000000
   48       -0.825960     -0.685911   1.000000   1.000000
   49       -0.723131     -0.409893   1.000000   1.000000
   50       -0.693574     -0.326897   1.000000   1.000000
   51       -0.273652     -0.026328   1.000000   1.000000
   52       -0.193761      0.048176   1.000000   1.000000
   53       -0.101870      0.194327   1.000000   1.000000
   54       -0.041355      0.333654   1.000000   1.000000
   55        0.108790      0.351595   1.000000   1.000000
   56        0.262181      0.493424   1.000000   1.000000
   57        0.277284      0.578246   1.000000   1.000000
   58        0.354977      0.599130   1.000000   1.000000
   59        0.388367      0.690989   1.000000   1.000000
   60        0.404137      0.765571   1.000000   1.000000
   61        0.501038      0.959566   1.000000   1.000000
   62        0.668444      1.063116   1.000000   1.000000
   63        0.829551      1.178483   1.000000   1.000000
   64        0.848564      1.214590   1.000000   1.000000
   65        0.907034      1.230074   1.000000   1.000000
   66        1.031246      1.419885   1.000000   1.000000
   67        1.270987      1.475546   1.000000   1.000000
   68        1.608269      1.866202   1.000000   1.000000
   69        1.616607      1.884312   1.000000   1.000000
   70        1.736994      1.966920   1.000000   1.000000
   71        1.991774      2.131079   1.000000   1.000000
   72        2.024823      2.281259   1.000000   1.000000
   73        2.062661      2.493793   1.000000   1.000000
   74        2.200187      2.536817   1.000000   1.000000
   75        2.234667      2.687660   1.000000   1.000000
   76        2.504859      2.809960   1.000000   1.000000
   77        2.586589      3.554312   1.000000   1.000000
   78        2.591143      3.595527   1.000000   1.000000
   79        2.768491      3.638240   1.000000   1.000000
   80        2.811030      3.797046   1.000000   1.000000
   81        2.833404      3.807319   1.000000   1.000000
   82        2.862760      3.836292   1.000000   1.000000
   83        2.884278      3.850084   1.000000   1.000000
   84        2.919979      3.851776   1.000000   1.000000
   85        2.946808      3.884784   1.000000   1.000000
   86        3.126074      4.050308   1.000000   1.000000
   87        3.155715      4.054495   1.000000   1.000000
   88        3.221696      4.083150   1.000000   1.000000
   89        3.231097      4.597541   1.000000   0.000000
   90        3.265993      4.919822   1.000000   0.000000
   91        3.530903      5.334005   1.000000   0.000000
   92        3.593933      5.362667   1.000000   0.000000
   93        3.702045      5.404034   1.000000   0.000000
   94        4.010275      5.555105   1.000000   0.000000
   95        4.135408      5.657695   1.000000   0.000000
   96        4.156716      5.923981   1.000000   0.000000
   97        6.162262      6.359673   0.000000   0.000000
   98        6.180959      6.406947   0.000000   0.000000
   99        6.265946      6.432549   0.000000   0.000000
  100        6.360428      6.502934   0.000000   0.000000
  101        6.386011      6.889166   0.000000   0.000000
  102        6.695559      6.897408   0.000000   0.000000
  103        6.714308      7.116789   0.000000   0.000000
  104        6.784820      7.192463   0.000000   0.000000
  105        6.820985      7.233744   0.000000   0.000000
  106        7.279791      7.550300   0.000000   0.000000
  107        7.345812      7.625240   0.000000   0.000000
  108        7.429151      7.730885   0.000000   0.000000
  109        9.706385      9.845911   0.000000   0.000000
  110       10.379840     10.459388   0.000000   0.000000
  111       10.385901     10.490056   0.000000   0.000000
  112       10.714287     10.841421   0.000000   0.000000
  113       11.030069     11.138922   0.000000   0.000000
  114       11.072292     11.209734   0.000000   0.000000
  115       11.218681     11.380077   0.000000   0.000000
  116       11.394530     11.494061   0.000000   0.000000
  117       11.818900     11.904550   0.000000   0.000000
  118       12.156313     12.262922   0.000000   0.000000
  119       12.403320     12.628562   0.000000   0.000000
  120       14.335453     14.584505   0.000000   0.000000
 
  0.2500000E+00  0.0000000E+00  0.0000000E+00  0.7812500E-02
    1      -60.292117    -58.414862   1.000000   1.000000
    2      -60.292033    -58.414825   1.000000   1.000000
    3      -60.283593    -58.405403   1.000000   1.000000
    4      -60.283355    -58.405216   1.000000   1.000000
    5      -60.281330    -58.402702   1.000000   1.000000
    6      -60.281072    -58.402337   1.000000   1.000000
    7      -60.279230    -58.400659   1.000000   1.000000
    8      -60.278768    -58.400260   1.000000   1.000000
    9      -60.256309    -58.396610   1.000000   1.000000
   10      -60.256190    -58.396459   1.000000   1.000000
   11      -60.252655    -58.392621   1.000000   1.000000
   12      -60.252324    -58.392387   1.000000   1.000000
   13      -15.522256    -15.382683   1.000000   1.000000
   14      -15.173841    -15.037215   1.000000   1.000000
   15      -14.512600    -14.336765   1.000000   1.000000
   16      -14.338900    -14.201626   1.000000   1.000000
   17      -14.278762    -14.133951   1.000000   1.000000
   18      -14.231032    -14.068968   1.000000   1.000000
   19      -14.159874    -13.981417   1.000000   1.000000
   20      -14.074310    -13.894707   1.000000   1.000000
   21      -13.968647    -13.786001   1.000000   1.000000
   22      -13.912849    -13.735498   1.000000   1.000000
   23      -13.893683    -13.720445   1.000000   1.000000
   24      -13.780532    -13.603092   1.000000   1.000000
   25      -13.726369    -13.602894   1.000000   1.000000
   26      -13.634008    -13.496893   1.000000   1.000000
   27      -13.559723    -13.415175   1.000000   1.000000
   28      -13.487385    -13.356964   1.000000   1.000000
   29       -3.172865     -3.015623   1.000000   1.000000
   30       -2.897981     -2.756549   1.000000   1.000000
   31       -2.801339     -2.630388   1.000000   1.000000
   32       -2.689839     -2.560110   1.000000   1.000000
   33       -2.678708     -2.531017   1.000000   1.000000
   34       -2.600978     -2.313667   1.000000   1.000000
   35       -2.411458     -2.301240   1.000000   1.000000
   36       -2.220519     -2.013203   1.000000   1.000000
   37       -2.117542     -1.899989   1.000000   1.000000
   38       -2.057919     -1.877700   1.000000   1.000000
   39       -1.823126     -1.467707   1.000000   1.000000
   40       -1.725350     -1.452211   1.000000   1.000000
   41       -1.664584     -1.323446   1.000000   1.000000
   42       -1.626957     -1.322271   1.000000   1.000000
   43       -1.445743     -1.237919   1.000000   1.000000
   44       -1.361119     -0.988114   1.000000   1.000000
   45       -1.358936     -0.969460   1.000000   1.000000
   46       -1.230143     -0.954588   1.000000   1.000000
   47       -1.067792     -0.836080   1.000000   1.000000
   48       -0.972141     -0.766414   1.000000   1.000000
   49       -0.845111     -0.637016   1.000000   1.000000
   50       -0.594694     -0.285687   1.000000   1.000000
   51       -0.516509     -0.211535   1.000000   1.000000
   52       -0.415568     -0.096537   1.000000   1.000000
   53       -0.296921      0.162547   1.000000   1.000000
   54       -0.216793      0.227277   1.000000   1.000000
   55       -0.147919      0.234249   1.000000   1.000000
   56        0.029970      0.285825   1.000000   1.000000
   57        0.492701      0.674899   1.000000   1.000000
   58        0.600232      0.876841   1.000000   1.000000
   59        0.626845      0.942245   1.000000   1.000000
   60        0.628903      0.987443   1.000000   1.000000
   61        0.765998      1.096306   1.000000   1.000000
   62        0.824958      1.137926   1.000000   1.000000
   63        0.880940      1.192014   1.000000   1.000000
   64        0.914204      1.212200   1.000000   1.000000
   65        0.957091      1.318671   1.000000   1.000000
   66        1.139185      1.424560   1.000000   1.000000
   67        1.219033      1.521621   1.000000   1.000000
   68        1.595423      1.854806   1.000000   1.000000
   69        1.647358      1.889341   1.000000   1.000000
   70        1.647578      1.946212   1.000000   1.000000
   71        1.832890      2.021512   1.000000   1.000000
   72        1.964569      2.241585   1.000000   1.000000
   73        2.116797      2.433088   1.000000   1.000000
   74        2.203462      2.565676   1.000000   1.000000
   75        2.253561      2.569261   1.000000   1.000000
   76        2.274151      2.696619   1.000000   1.000000
   77        2.570152      3.574717   1.000000   1.000000
   78        2.614490      3.609658   1.000000   1.000000
   79        2.743703      3.695194   1.000000   1.000000
   80        2.772874      3.726592   1.000000   1.000000
   81        2.776002      3.773175   1.000000   1.000000
   82        2.856868      3.804419   1.000000   1.000000
   83        2.877983      3.832830   1.000000   1.000000
   84        2.903159      3.913235   1.000000   1.000000
   85        2.962690      3.914499   1.000000   1.000000
   86        3.079090      4.004881   1.000000   1.000000
   87        3.146824      4.014858   1.000000   1.000000
   88        3.168312      4.070293   1.000000   1.000000
   89        3.379806      4.707788   1.000000   0.000000
   90        3.414609      5.001161   1.000000   0.000000
   91        3.581255      5.138590   1.000000   0.000000
   92        3.595373      5.353983   1.000000   0.000000
   93        3.672690      5.563190   1.000000   0.000000
   94        4.024010      5.565973   1.000000   0.000000
   95        4.032670      5.628352   1.000000   0.000000
   96        4.109258      5.866774   1.000000   0.000000
   97        6.179436      6.367581   0.000000   0.000000
   98        6.199813      6.398931   0.000000   0.000000
   99        6.253126      6.410382   0.000000   0.000000
  100        6.330226      6.474411   0.000000   0.000000
  101        6.439093      6.895060   0.000000   0.000000
  102        6.670134      6.975854   0.000000   0.000000
  103        6.685583      6.976949   0.000000   0.000000
  104        6.690767      7.230389   0.000000   0.000000
  105        6.990041      7.391296   0.000000   0.000000
  106        7.302562      7.541371   0.000000   0.000000
  107        7.314428      7.603275   0.000000   0.000000
  108        7.414263      7.697080   0.000000   0.000000
  109        9.922993     10.065027   0.000000   0.000000
  110       10.348328     10.434311   0.000000   0.000000
  111       10.358559     10.461334   0.000000   0.000000
  112       10.724319     10.852034   0.000000   0.000000
  113       10.953590     11.064018   0.000000   0.000000
  114       11.145557     11.281755   0.000000   0.000000
  115       11.242964     11.396947   0.000000   0.000000
  116       11.377784     11.516381   0.000000   0.000000
  117       11.511802     11.612251   0.000000   0.000000
  118       11.825910     11.924143   0.000000   0.000000
  119       13.080944     13.255080   0.000000   0.000000
  120       14.269858     14.388422   0.000000   0.000000
 
  0.5000000E+00  0.0000000E+00  0.0000000E+00  0.3906250E-02
    1      -60.292114    -58.414845   1.000000   1.000000
    2      -60.292033    -58.414825   1.000000   1.000000
    3      -60.283545    -58.405333   1.000000   1.000000
    4      -60.283342    -58.405208   1.000000   1.000000
    5      -60.281100    -58.402424   1.000000   1.000000
    6      -60.281018    -58.402247   1.000000   1.000000
    7      -60.279138    -58.400541   1.000000   1.000000
    8      -60.278722    -58.400203   1.000000   1.000000
    9      -60.256183    -58.396496   1.000000   1.000000
   10      -60.256176    -58.396429   1.000000   1.000000
   11      -60.252622    -58.392591   1.000000   1.000000
   12      -60.252312    -58.392389   1.000000   1.000000
   13      -15.378136    -15.238769   1.000000   1.000000
   14      -15.378096    -15.238719   1.000000   1.000000
   15      -14.343070    -14.174072   1.000000   1.000000
   16      -14.343021    -14.174000   1.000000   1.000000
   17      -14.310169    -14.169623   1.000000   1.000000
   18      -14.310158    -14.169605   1.000000   1.000000
   19      -14.125559    -13.946870   1.000000   1.000000
   20      -14.125512    -13.946805   1.000000   1.000000
   21      -13.936396    -13.757331   1.000000   1.000000
   22      -13.936313    -13.757217   1.000000   1.000000
   23      -13.828741    -13.652954   1.000000   1.000000
   24      -13.828694    -13.652889   1.000000   1.000000
   25      -13.610221    -13.483711   1.000000   1.000000
   26      -13.610214    -13.483703   1.000000   1.000000
   27      -13.595375    -13.454192   1.000000   1.000000
   28      -13.595363    -13.454175   1.000000   1.000000
   29       -2.965226     -2.812730   1.000000   1.000000
   30       -2.965185     -2.812674   1.000000   1.000000
   31       -2.827820     -2.680458   1.000000   1.000000
   32       -2.827787     -2.680423   1.000000   1.000000
   33       -2.707256     -2.490217   1.000000   1.000000
   34       -2.707246     -2.490216   1.000000   1.000000
   35       -2.212148     -2.057806   1.000000   1.000000
   36       -2.212136     -2.057784   1.000000   1.000000
   37       -2.135557     -1.956278   1.000000   1.000000
   38       -2.135508     -1.956208   1.000000   1.000000
   39       -1.715378     -1.361611   1.000000   1.000000
   40       -1.715302     -1.361580   1.000000   1.000000
   41       -1.670054     -1.289887   1.000000   1.000000
   42       -1.670003     -1.289819   1.000000   1.000000
   43       -1.240346     -1.041344   1.000000   1.000000
   44       -1.240335     -1.041343   1.000000   1.000000
   45       -1.217619     -0.943250   1.000000   1.000000
   46       -1.217584     -0.943205   1.000000   1.000000
   47       -1.110268     -0.847941   1.000000   1.000000
   48       -1.110236     -0.847893   1.000000   1.000000
   49       -0.853761     -0.681469   1.000000   1.000000
   50       -0.853761     -0.681457   1.000000   1.000000
   51       -0.548049     -0.123801   1.000000   1.000000
   52       -0.548045     -0.123797   1.000000   1.000000
   53       -0.342269     -0.013929   1.000000   1.000000
   54       -0.342250     -0.013908   1.000000   1.000000
   55       -0.277557      0.252687   1.000000   1.000000
   56       -0.277554      0.252720   1.000000   1.000000
   57        0.647137      0.890557   1.000000   1.000000
   58        0.647153      0.890578   1.000000   1.000000
   59        0.799361      1.065755   1.000000   1.000000
   60        0.799416      1.065834   1.000000   1.000000
   61        0.877491      1.189513   1.000000   1.000000
   62        0.877497      1.189533   1.000000   1.000000
   63        1.100532      1.340552   1.000000   1.000000
   64        1.100552      1.340561   1.000000   1.000000
   65        1.182439      1.546723   1.000000   1.000000
   66        1.182442      1.546753   1.000000   1.000000
   67        1.414970      1.696476   1.000000   1.000000
   68        1.414978      1.696487   1.000000   1.000000
   69        1.439093      1.710698   1.000000   1.000000
   70        1.439106      1.710714   1.000000   1.000000
   71        1.933059      2.226907   1.000000   1.000000
   72        1.933087      2.226967   1.000000   1.000000
   73        2.055407      2.249936   1.000000   1.000000
   74        2.055451      2.250008   1.000000   1.000000
   75        2.227131      2.651135   1.000000   1.000000
   76        2.227191      2.651152   1.000000   1.000000
   77        2.643167      3.609481   1.000000   1.000000
   78        2.643195      3.609488   1.000000   1.000000
   79        2.644616      3.694895   1.000000   1.000000
   80        2.644623      3.694968   1.000000   1.000000
   81        2.736113      3.763723   1.000000   1.000000
   82        2.736182      3.763735   1.000000   1.000000
   83        2.948557      3.895774   1.000000   1.000000
   84        2.948591      3.895857   1.000000   1.000000
   85        3.033998      3.937492   1.000000   1.000000
   86        3.034053      3.937557   1.000000   1.000000
   87        3.115555      4.027186   1.000000   1.000000
   88        3.115656      4.027264   1.000000   1.000000
   89        3.548864      4.925903   1.000000   0.000000
   90        3.548865      4.925912   1.000000   0.000000
   91        3.590780      5.189214   1.000000   0.000000
   92        3.590860      5.189229   1.000000   0.000000
   93        3.782420      5.591036   1.000000   0.000000
   94        3.782446      5.591075   1.000000   0.000000
   95        4.044551      5.738395   1.000000   0.000000
   96        4.044619      5.738446   1.000000   0.000000
   97        6.217920      6.382742   0.000000   0.000000
   98        6.217923      6.382745   0.000000   0.000000
   99        6.260702      6.420873   0.000000   0.000000
  100        6.260716      6.420901   0.000000   0.000000
  101        6.557911      6.906031   0.000000   0.000000
  102        6.557943      6.906046   0.000000   0.000000
  103        6.669701      7.138693   0.000000   0.000000
  104        6.669707      7.138739   0.000000   0.000000
  105        7.176165      7.559098   0.000000   0.000000
  106        7.176180      7.559103   0.000000   0.000000
  107        7.373211      7.585402   0.000000   0.000000
  108        7.373217      7.585425   0.000000   0.000000
  109       10.327210     10.423426   0.000000   0.000000
  110       10.327211     10.423430   0.000000   0.000000
  111       10.485923     10.634118   0.000000   0.000000
  112       10.485949     10.634159   0.000000   0.000000
  113       10.878375     10.993265   0.000000   0.000000
  114       10.878386     10.993273   0.000000   0.000000
  115       11.240690     11.382082   0.000000   0.000000
  116       11.240692     11.382086   0.000000   0.000000
  117       11.697452     11.796714   0.000000   0.000000
  118       11.697454     11.796715   0.000000   0.000000
  119       13.747859     13.901741   0.000000   0.000000
  120       13.747878     13.901763   0.000000   0.000000
 
  0.0000000E+00  0.1250000E+00  0.0000000E+00  0.7812500E-02
    1      -60.292141    -58.414906   1.000000   1.000000
    2      -60.292019    -58.414802   1.000000   1.000000
    3      -60.283594    -58.405392   1.000000   1.000000
    4      -60.283380    -58.405249   1.000000   1.000000
    5      -60.281310    -58.402682   1.000000   1.000000
    6      -60.281193    -58.402456   1.000000   1.000000
    7      -60.279228    -58.400650   1.000000   1.000000
    8      -60.278748    -58.400221   1.000000   1.000000
    9      -60.256308    -58.396613   1.000000   1.000000
   10      -60.256220    -58.396515   1.000000   1.000000
   11      -60.252651    -58.392610   1.000000   1.000000
   12      -60.252337    -58.392402   1.000000   1.000000
   13      -15.537777    -15.398509   1.000000   1.000000
   14      -15.015147    -14.886092   1.000000   1.000000
   15      -14.663568    -14.481748   1.000000   1.000000
   16      -14.344227    -14.206692   1.000000   1.000000
   17      -14.328451    -14.161379   1.000000   1.000000
   18      -14.211543    -14.078284   1.000000   1.000000
   19      -14.152755    -13.969985   1.000000   1.000000
   20      -14.043735    -13.863311   1.000000   1.000000
   21      -14.002165    -13.819938   1.000000   1.000000
   22      -13.932012    -13.758004   1.000000   1.000000
   23      -13.896927    -13.722622   1.000000   1.000000
   24      -13.775500    -13.653539   1.000000   1.000000
   25      -13.766820    -13.587782   1.000000   1.000000
   26      -13.635782    -13.496744   1.000000   1.000000
   27      -13.530092    -13.385611   1.000000   1.000000
   28      -13.426176    -13.292120   1.000000   1.000000
   29       -3.188004     -3.029618   1.000000   1.000000
   30       -2.963827     -2.811716   1.000000   1.000000
   31       -2.876206     -2.736457   1.000000   1.000000
   32       -2.659451     -2.528497   1.000000   1.000000
   33       -2.508427     -2.355828   1.000000   1.000000
   34       -2.463252     -2.203795   1.000000   1.000000
   35       -2.367300     -2.203488   1.000000   1.000000
   36       -2.187767     -1.959882   1.000000   1.000000
   37       -2.153746     -1.956321   1.000000   1.000000
   38       -2.123361     -1.934544   1.000000   1.000000
   39       -1.881708     -1.579281   1.000000   1.000000
   40       -1.861976     -1.530124   1.000000   1.000000
   41       -1.594764     -1.338731   1.000000   1.000000
   42       -1.525796     -1.305317   1.000000   1.000000
   43       -1.508581     -1.205771   1.000000   1.000000
   44       -1.410809     -0.982809   1.000000   1.000000
   45       -1.274750     -0.932628   1.000000   1.000000
   46       -1.267988     -0.869585   1.000000   1.000000
   47       -1.154933     -0.816288   1.000000   1.000000
   48       -0.823902     -0.674098   1.000000   1.000000
   49       -0.815526     -0.608867   1.000000   1.000000
   50       -0.686892     -0.352602   1.000000   1.000000
   51       -0.531476     -0.269178   1.000000   1.000000
   52       -0.203249      0.074981   1.000000   1.000000
   53       -0.062932      0.170857   1.000000   1.000000
   54       -0.022496      0.191446   1.000000   1.000000
   55       -0.018023      0.366258   1.000000   1.000000
   56        0.098735      0.491401   1.000000   1.000000
   57        0.251066      0.574555   1.000000   1.000000
   58        0.304171      0.649854   1.000000   1.000000
   59        0.488157      0.730811   1.000000   1.000000
   60        0.560879      0.999510   1.000000   1.000000
   61        0.607212      1.015396   1.000000   1.000000
   62        0.696919      1.024400   1.000000   1.000000
   63        0.872411      1.205444   1.000000   1.000000
   64        0.907031      1.259171   1.000000   1.000000
   65        1.005891      1.275666   1.000000   1.000000
   66        1.092549      1.385424   1.000000   1.000000
   67        1.226458      1.483947   1.000000   1.000000
   68        1.390535      1.646331   1.000000   1.000000
   69        1.603289      1.871052   1.000000   1.000000
   70        1.649078      1.908802   1.000000   1.000000
   71        1.817336      2.037166   1.000000   1.000000
   72        1.892535      2.206771   1.000000   1.000000
   73        2.151619      2.484552   1.000000   1.000000
   74        2.182550      2.543469   1.000000   1.000000
   75        2.341121      2.671804   1.000000   1.000000
   76        2.530017      2.780198   1.000000   1.000000
   77        2.549960      3.569810   1.000000   1.000000
   78        2.615948      3.644884   1.000000   1.000000
   79        2.781291      3.676595   1.000000   1.000000
   80        2.789685      3.787540   1.000000   1.000000
   81        2.802052      3.803773   1.000000   1.000000
   82        2.817469      3.810734   1.000000   1.000000
   83        2.890564      3.839519   1.000000   1.000000
   84        2.920723      3.840988   1.000000   1.000000
   85        2.960117      3.881947   1.000000   1.000000
   86        2.997537      4.028983   1.000000   1.000000
   87        3.093228      4.042813   1.000000   1.000000
   88        3.312410      4.146948   1.000000   1.000000
   89        3.325491      4.681283   1.000000   0.000000
   90        3.446143      4.980694   1.000000   0.000000
   91        3.581014      5.224651   1.000000   0.000000
   92        3.593283      5.333271   1.000000   0.000000
   93        3.686053      5.497382   1.000000   0.000000
   94        3.985289      5.537582   1.000000   0.000000
   95        4.000644      5.576433   1.000000   0.000000
   96        4.155654      5.927384   1.000000   0.000000
   97        6.185825      6.376746   0.000000   0.000000
   98        6.203727      6.408630   0.000000   0.000000
   99        6.301141      6.528861   0.000000   0.000000
  100        6.375876      6.556068   0.000000   0.000000
  101        6.383445      6.776774   0.000000   0.000000
  102        6.447876      6.798580   0.000000   0.000000
  103        6.786537      7.100360   0.000000   0.000000
  104        6.861829      7.221983   0.000000   0.000000
  105        6.915286      7.306768   0.000000   0.000000
  106        7.274468      7.605613   0.000000   0.000000
  107        7.312269      7.629575   0.000000   0.000000
  108        7.439653      7.696660   0.000000   0.000000
  109        9.872224     10.011169   0.000000   0.000000
  110       10.396474     10.498158   0.000000   0.000000
  111       10.462111     10.546952   0.000000   0.000000
  112       10.560131     10.697727   0.000000   0.000000
  113       10.840811     10.960005   0.000000   0.000000
  114       11.039565     11.174150   0.000000   0.000000
  115       11.303317     11.446543   0.000000   0.000000
  116       11.404593     11.504992   0.000000   0.000000
  117       11.817904     11.903997   0.000000   0.000000
  118       12.277180     12.386838   0.000000   0.000000
  119       12.624546     12.843377   0.000000   0.000000
  120       14.383967     14.573229   0.000000   0.000000
 
  0.2500000E+00  0.1250000E+00  0.0000000E+00  0.7812500E-02
    1      -60.292111    -58.414849   1.000000   1.000000
    2      -60.292026    -58.414819   1.000000   1.000000
    3      -60.283560    -58.405353   1.000000   1.000000
    4      -60.283336    -58.405193   1.000000   1.000000
    5      -60.281272    -58.402631   1.000000   1.000000
    6      -60.281069    -58.402327   1.000000   1.000000
    7      -60.279191    -58.400603   1.000000   1.000000
    8      -60.278728    -58.400203   1.000000   1.000000
    9      -60.256202    -58.396507   1.000000   1.000000
   10      -60.256154    -58.396419   1.000000   1.000000
   11      -60.252610    -58.392572   1.000000   1.000000
   12      -60.252298    -58.392367   1.000000   1.000000
   13      -15.488168    -15.348793   1.000000   1.000000
   14      -15.150752    -15.014120   1.000000   1.000000
   15      -14.550713    -14.377852   1.000000   1.000000
   16      -14.348316    -14.193100   1.000000   1.000000
   17      -14.331378    -14.182111   1.000000   1.000000
   18      -14.238778    -14.102563   1.000000   1.000000
   19      -14.139790    -13.956777   1.000000   1.000000
   20      -14.063174    -13.881356   1.000000   1.000000
   21      -13.991938    -13.813108   1.000000   1.000000
   22      -13.940724    -13.766237   1.000000   1.000000
   23      -13.869905    -13.695115   1.000000   1.000000
   24      -13.785070    -13.621944   1.000000   1.000000
   25      -13.724350    -13.586033   1.000000   1.000000
   26      -13.619692    -13.479799   1.000000   1.000000
   27      -13.543418    -13.399638   1.000000   1.000000
   28      -13.476802    -13.344160   1.000000   1.000000