   24   24    1    2
  0.1055123E+02  0.9097362E-09  0.5635252E-09  0.4939867E-09  0.5000000E-15
  1.000000000000000E-004
  CAR 
 NiWO4                                   
    184    132    120
 
  0.0000000E+00  0.0000000E+00  0.0000000E+00  0.3906250E-02
    1      -60.419055    -58.276854   1.000000   1.000000
    2      -60.418975    -58.276748   1.000000   1.000000
    3      -60.412399    -58.269389   1.000000   1.000000
    4      -60.412320    -58.269387   1.000000   1.000000
    5      -60.391804    -58.263854   1.000000   1.000000
    6      -60.391601    -58.263614   1.000000   1.000000
    7      -60.388399    -58.259976   1.000000   1.000000
    8      -60.388275    -58.259815   1.000000   1.000000
    9      -60.366914    -58.247334   1.000000   1.000000
   10      -60.366729    -58.247102   1.000000   1.000000
   11      -60.366549    -58.246677   1.000000   1.000000
   12      -60.366424    -58.246522   1.000000   1.000000
   13      -15.461246    -15.392923   1.000000   1.000000
   14      -14.938456    -14.875596   1.000000   1.000000
   15      -14.473743    -14.374580   1.000000   1.000000
   16      -14.246293    -14.181503   1.000000   1.000000
   17      -14.187674    -14.073251   1.000000   1.000000
   18      -14.068978    -13.973327   1.000000   1.000000
   19      -14.044122    -13.917152   1.000000   1.000000
   20      -13.901807    -13.773968   1.000000   1.000000
   21      -13.844013    -13.716970   1.000000   1.000000
   22      -13.815153    -13.686741   1.000000   1.000000
   23      -13.777797    -13.647502   1.000000   1.000000
   24      -13.695667    -13.625695   1.000000   1.000000
   25      -13.639408    -13.502718   1.000000   1.000000
   26      -13.552266    -13.483470   1.000000   1.000000
   27      -13.475917    -13.347036   1.000000   1.000000
   28      -13.344071    -13.273151   1.000000   1.000000
   29       -3.311425     -3.134293   1.000000   1.000000
   30       -3.236119     -2.845778   1.000000   1.000000
   31       -3.041919     -2.684152   1.000000   1.000000
   32       -2.834931     -2.514918   1.000000   1.000000
   33       -2.806968     -2.432659   1.000000   1.000000
   34       -2.798856     -2.292378   1.000000   1.000000
   35       -2.742912     -2.153238   1.000000   1.000000
   36       -2.738363     -2.143841   1.000000   1.000000
   37       -2.704317     -2.138850   1.000000   1.000000
   38       -2.633948     -1.904225   1.000000   1.000000
   39       -2.580210     -1.629235   1.000000   1.000000
   40       -2.518906     -1.574655   1.000000   1.000000
   41       -2.517065     -1.276322   1.000000   1.000000
   42       -2.246095     -1.264712   1.000000   1.000000
   43       -2.217152     -1.192968   1.000000   1.000000
   44       -2.206891     -0.956465   1.000000   1.000000
   45       -1.970789     -0.912859   1.000000   1.000000
   46       -1.891055     -0.817586   1.000000   1.000000
   47       -1.607074     -0.800100   1.000000   1.000000
   48       -1.237686     -0.697502   1.000000   1.000000
   49       -0.928935     -0.373565   1.000000   1.000000
   50       -0.891659     -0.281617   1.000000   1.000000
   51       -0.881161     -0.110777   1.000000   1.000000
   52       -0.729546     -0.046993   1.000000   1.000000
   53       -0.726141      0.051749   1.000000   1.000000
   54       -0.619139      0.116483   1.000000   1.000000
   55       -0.550322      0.363539   1.000000   1.000000
   56       -0.506156      0.364206   1.000000   1.000000
   57       -0.418326      0.443185   1.000000   1.000000
   58       -0.401670      0.505413   1.000000   1.000000
   59       -0.198402      0.578133   1.000000   1.000000
   60       -0.168870      0.740534   1.000000   1.000000
   61       -0.062287      0.838280   1.000000   1.000000
   62        0.007646      0.897241   1.000000   1.000000
   63        0.054228      0.986156   1.000000   1.000000
   64        0.068536      1.038532   1.000000   1.000000
   65        0.078019      1.070937   1.000000   1.000000
   66        0.201955      1.139505   1.000000   1.000000
   67        0.355398      1.154271   1.000000   1.000000
   68        0.416568      1.334843   1.000000   1.000000
   69        0.484892      1.427355   1.000000   1.000000
   70        0.536315      1.583533   1.000000   1.000000
   71        0.619524      1.590016   1.000000   1.000000
   72        0.646100      1.610574   1.000000   1.000000
   73        1.090122      1.670518   1.000000   1.000000
   74        1.103396      1.703037   1.000000   1.000000
   75        1.139066      1.836055   1.000000   1.000000
   76        1.198996      1.983514   1.000000   1.000000
   77        1.221986      2.011051   1.000000   1.000000
   78        1.272657      2.024725   1.000000   1.000000
   79        1.618393      2.064035   1.000000   1.000000
   80        1.794181      2.153208   1.000000   1.000000
   81        1.831673      2.332444   1.000000   1.000000
   82        1.902543      2.348130   1.000000   1.000000
   83        2.075755      2.509375   1.000000   1.000000
   84        2.157042      2.529335   1.000000   1.000000
   85        2.235644      2.743984   1.000000   1.000000
   86        2.329842      2.804483   1.000000   1.000000
   87        2.343041      2.966767   1.000000   1.000000
   88        2.378730      3.050855   1.000000   1.000000
   89        2.630768      5.423605   1.000000   0.000000
   90        2.674929      5.927951   1.000000   0.000000
   91        2.823742      6.104994   1.000000   0.000000
   92        2.851236      6.108668   1.000000   0.000000
   93        2.909042      6.223558   1.000000   0.000000
   94        3.100529      6.236954   1.000000   0.000000
   95        3.168743      6.353708   1.000000   0.000000
   96        3.184297      6.442460   1.000000   0.000000
   97        6.088834      6.597367   0.000000   0.000000
   98        6.152479      6.771059   0.000000   0.000000
   99        6.245995      6.997543   0.000000   0.000000
  100        6.261011      7.247340   0.000000   0.000000
  101        6.353781      7.760466   0.000000   0.000000
  102        6.505047      7.911137   0.000000   0.000000
  103        6.659982      8.119827   0.000000   0.000000
  104        6.728939      8.213687   0.000000   0.000000
  105        6.736542      8.216737   0.000000   0.000000
  106        7.217916      8.294404   0.000000   0.000000
  107        7.233339      8.430085   0.000000   0.000000
  108        7.387264      8.565330   0.000000   0.000000
  109        9.758908      9.885183   0.000000   0.000000
  110       10.343057     10.396916   0.000000   0.000000
  111       10.347178     10.488044   0.000000   0.000000
  112       10.680396     10.845748   0.000000   0.000000
  113       11.028411     11.134311   0.000000   0.000000
  114       11.066423     11.194673   0.000000   0.000000
  115       11.146663     11.366670   0.000000   0.000000
  116       11.335424     11.419004   0.000000   0.000000
  117       11.799103     11.864194   0.000000   0.000000
  118       12.217448     12.299521   0.000000   0.000000
  119       12.474265     12.678086   0.000000   0.000000
  120       14.374102     14.618368   0.000000   0.000000
 
  0.2500000E+00  0.0000000E+00  0.0000000E+00  0.7812500E-02
    1      -60.419018    -58.276804   1.000000   1.000000
    2      -60.418947    -58.276721   1.000000   1.000000
    3      -60.412407    -58.269488   1.000000   1.000000
    4      -60.412316    -58.269320   1.000000   1.000000
    5      -60.391739    -58.263775   1.000000   1.000000
    6      -60.391609    -58.263632   1.000000   1.000000
    7      -60.388451    -58.260018   1.000000   1.000000
    8      -60.388316    -58.259891   1.000000   1.000000
    9      -60.366914    -58.247311   1.000000   1.000000
   10      -60.366759    -58.247153   1.000000   1.000000
   11      -60.366575    -58.246718   1.000000   1.000000
   12      -60.366303    -58.246388   1.000000   1.000000
   13      -15.410398    -15.342051   1.000000   1.000000
   14      -15.067728    -15.001192   1.000000   1.000000
   15      -14.359665    -14.263282   1.000000   1.000000
   16      -14.238630    -14.167901   1.000000   1.000000
   17      -14.197327    -14.091980   1.000000   1.000000
   18      -14.104089    -14.008151   1.000000   1.000000
   19      -14.031110    -13.904709   1.000000   1.000000
   20      -13.941264    -13.815291   1.000000   1.000000
   21      -13.830498    -13.703064   1.000000   1.000000
   22      -13.785723    -13.655743   1.000000   1.000000
   23      -13.771168    -13.639926   1.000000   1.000000
   24      -13.657687    -13.579338   1.000000   1.000000
   25      -13.648684    -13.521514   1.000000   1.000000
   26      -13.539603    -13.460160   1.000000   1.000000
   27      -13.485937    -13.364579   1.000000   1.000000
   28      -13.398102    -13.327810   1.000000   1.000000
   29       -3.233692     -3.054836   1.000000   1.000000
   30       -3.228295     -2.809918   1.000000   1.000000
   31       -3.054566     -2.634405   1.000000   1.000000
   32       -3.004745     -2.580050   1.000000   1.000000
   33       -2.808952     -2.563717   1.000000   1.000000
   34       -2.756046     -2.344182   1.000000   1.000000
   35       -2.738451     -2.287664   1.000000   1.000000
   36       -2.720221     -2.138742   1.000000   1.000000
   37       -2.711940     -1.978572   1.000000   1.000000
   38       -2.645732     -1.918713   1.000000   1.000000
   39       -2.624570     -1.429139   1.000000   1.000000
   40       -2.609641     -1.428201   1.000000   1.000000
   41       -2.447275     -1.403589   1.000000   1.000000
   42       -2.270912     -1.258860   1.000000   1.000000
   43       -2.261843     -1.137794   1.000000   1.000000
   44       -1.977003     -0.960278   1.000000   1.000000
   45       -1.758507     -0.914308   1.000000   1.000000
   46       -1.669497     -0.840061   1.000000   1.000000
   47       -1.513612     -0.816194   1.000000   1.000000
   48       -1.358782     -0.728063   1.000000   1.000000
   49       -1.257179     -0.706624   1.000000   1.000000
   50       -1.138017     -0.429546   1.000000   1.000000
   51       -0.981060     -0.016453   1.000000   1.000000
   52       -0.856093     -0.011348   1.000000   1.000000
   53       -0.754898      0.059992   1.000000   1.000000
   54       -0.725844      0.081044   1.000000   1.000000
   55       -0.707477      0.085667   1.000000   1.000000
   56       -0.525904      0.297869   1.000000   1.000000
   57       -0.300439      0.602158   1.000000   1.000000
   58       -0.197789      0.725738   1.000000   1.000000
   59       -0.185562      0.754715   1.000000   1.000000
   60       -0.103794      0.819769   1.000000   1.000000
   61       -0.067712      0.871079   1.000000   1.000000
   62       -0.006387      1.007724   1.000000   1.000000
   63        0.008577      1.008451   1.000000   1.000000
   64        0.034597      1.029754   1.000000   1.000000
   65        0.149691      1.090839   1.000000   1.000000
   66        0.271249      1.144584   1.000000   1.000000
   67        0.343353      1.225228   1.000000   1.000000
   68        0.389369      1.306464   1.000000   1.000000
   69        0.514322      1.386387   1.000000   1.000000
   70        0.640860      1.482392   1.000000   1.000000
   71        0.678258      1.554243   1.000000   1.000000
   72        0.957055      1.676128   1.000000   1.000000
   73        1.046353      1.732116   1.000000   1.000000
   74        1.075241      1.739545   1.000000   1.000000
   75        1.169040      1.794067   1.000000   1.000000
   76        1.184359      1.976116   1.000000   1.000000
   77        1.297185      2.014997   1.000000   1.000000
   78        1.320867      2.033253   1.000000   1.000000
   79        1.557405      2.036464   1.000000   1.000000
   80        1.558468      2.194064   1.000000   1.000000
   81        1.931896      2.223645   1.000000   1.000000
   82        1.989556      2.330785   1.000000   1.000000
   83        2.009879      2.494728   1.000000   1.000000
   84        2.112292      2.534191   1.000000   1.000000
   85        2.202157      2.699209   1.000000   1.000000
   86        2.427999      2.859162   1.000000   1.000000
   87        2.481214      2.860220   1.000000   1.000000
   88        2.540244      3.008326   1.000000   1.000000
   89        2.571382      5.488057   1.000000   0.000000
   90        2.577394      5.812647   1.000000   0.000000
   91        2.701125      6.078252   1.000000   0.000000
   92        2.809012      6.183725   1.000000   0.000000
   93        2.817498      6.204863   1.000000   0.000000
   94        3.063381      6.291222   1.000000   0.000000
   95        3.121043      6.382817   1.000000   0.000000
   96        3.178734      6.410819   1.000000   0.000000
   97        6.112038      6.602544   0.000000   0.000000
   98        6.182726      6.740150   0.000000   0.000000
   99        6.223769      7.026561   0.000000   0.000000
  100        6.293556      7.202319   0.000000   0.000000
  101        6.324475      7.779106   0.000000   0.000000
  102        6.467836      7.969405   0.000000   0.000000
  103        6.636945      8.018093   0.000000   0.000000
  104        6.647400      8.149131   0.000000   0.000000
  105        6.899419      8.279702   0.000000   0.000000
  106        7.191475      8.386948   0.000000   0.000000
  107        7.257910      8.452665   0.000000   0.000000
  108        7.371587      8.512592   0.000000   0.000000
  109        9.978261     10.102236   0.000000   0.000000
  110       10.308398     10.374384   0.000000   0.000000
  111       10.316328     10.445930   0.000000   0.000000
  112       10.695623     10.858544   0.000000   0.000000
  113       10.939157     11.057160   0.000000   0.000000
  114       11.134295     11.270486   0.000000   0.000000
  115       11.185398     11.386288   0.000000   0.000000
  116       11.436215     11.544359   0.000000   0.000000
  117       11.465108     11.548161   0.000000   0.000000
  118       11.802957     11.887149   0.000000   0.000000
  119       13.144491     13.303991   0.000000   0.000000
  120       14.294779     14.422551   0.000000   0.000000
 
  0.5000000E+00  0.0000000E+00  0.0000000E+00  0.3906250E-02
    1      -60.418971    -58.276746   1.000000   1.000000
    2      -60.418970    -58.276745   1.000000   1.000000
    3      -60.412302    -58.269323   1.000000   1.000000
    4      -60.412301    -58.269322   1.000000   1.000000
    5      -60.391603    -58.263632   1.000000   1.000000
    6      -60.391601    -58.263630   1.000000   1.000000
    7      -60.388363    -58.259944   1.000000   1.000000
    8      -60.388361    -58.259942   1.000000   1.000000
    9      -60.366805    -58.247173   1.000000   1.000000
   10      -60.366803    -58.247172   1.000000   1.000000
   11      -60.366312    -58.246386   1.000000   1.000000
   12      -60.366310    -58.246385   1.000000   1.000000
   13      -15.267228    -15.199073   1.000000   1.000000
   14      -15.267227    -15.199072   1.000000   1.000000
   15      -14.218889    -14.132327   1.000000   1.000000
   16      -14.218888    -14.132326   1.000000   1.000000
   17      -14.203152    -14.107194   1.000000   1.000000
   18      -14.203151    -14.107194   1.000000   1.000000
   19      -13.994292    -13.868809   1.000000   1.000000
   20      -13.994291    -13.868808   1.000000   1.000000
   21      -13.805427    -13.676619   1.000000   1.000000
   22      -13.805426    -13.676618   1.000000   1.000000
   23      -13.706614    -13.572232   1.000000   1.000000
   24      -13.706613    -13.572231   1.000000   1.000000
   25      -13.526871    -13.457727   1.000000   1.000000
   26      -13.526870    -13.457725   1.000000   1.000000
   27      -13.511440    -13.409582   1.000000   1.000000
   28      -13.511439    -13.409581   1.000000   1.000000
   29       -3.190298     -2.847401   1.000000   1.000000
   30       -3.190298     -2.847400   1.000000   1.000000
   31       -3.000482     -2.710413   1.000000   1.000000
   32       -3.000481     -2.710412   1.000000   1.000000
   33       -2.899019     -2.489788   1.000000   1.000000
   34       -2.899018     -2.489787   1.000000   1.000000
   35       -2.775276     -2.092307   1.000000   1.000000
   36       -2.775275     -2.092306   1.000000   1.000000
   37       -2.669944     -2.082175   1.000000   1.000000
   38       -2.669944     -2.082174   1.000000   1.000000
   39       -2.655594     -1.283585   1.000000   1.000000
   40       -2.655594     -1.283585   1.000000   1.000000
   41       -2.297322     -1.177491   1.000000   1.000000
   42       -2.297322     -1.177490   1.000000   1.000000
   43       -1.895341     -1.057943   1.000000   1.000000
   44       -1.895341     -1.057942   1.000000   1.000000
   45       -1.685790     -1.020749   1.000000   1.000000
   46       -1.685790     -1.020748   1.000000   1.000000
   47       -1.361517     -0.773122   1.000000   1.000000
   48       -1.361516     -0.773120   1.000000   1.000000
   49       -1.337334     -0.760024   1.000000   1.000000
   50       -1.337334     -0.760023   1.000000   1.000000
   51       -1.029362     -0.117153   1.000000   1.000000
   52       -1.029362     -0.117151   1.000000   1.000000
   53       -1.011360      0.089270   1.000000   1.000000
   54       -1.011360      0.089272   1.000000   1.000000
   55       -0.612702      0.190944   1.000000   1.000000
   56       -0.612702      0.190946   1.000000   1.000000
   57       -0.171705      0.822877   1.000000   1.000000
   58       -0.171704      0.822878   1.000000   1.000000
   59       -0.158657      0.894444   1.000000   1.000000
   60       -0.158656      0.894445   1.000000   1.000000
   61        0.012415      0.940172   1.000000   1.000000
   62        0.012416      0.940174   1.000000   1.000000
   63        0.032578      1.055790   1.000000   1.000000
   64        0.032578      1.055791   1.000000   1.000000
   65        0.262592      1.074767   1.000000   1.000000
   66        0.262593      1.074769   1.000000   1.000000
   67        0.295610      1.340603   1.000000   1.000000
   68        0.295611      1.340606   1.000000   1.000000
   69        0.714000      1.493725   1.000000   1.000000
   70        0.714000      1.493725   1.000000   1.000000
   71        0.949241      1.532135   1.000000   1.000000
   72        0.949242      1.532136   1.000000   1.000000
   73        0.957640      1.774804   1.000000   1.000000
   74        0.957641      1.774805   1.000000   1.000000
   75        1.303315      1.806213   1.000000   1.000000
   76        1.303315      1.806214   1.000000   1.000000
   77        1.330998      2.049961   1.000000   1.000000
   78        1.330999      2.049963   1.000000   1.000000
   79        1.453065      2.131029   1.000000   1.000000
   80        1.453065      2.131030   1.000000   1.000000
   81        1.995603      2.216651   1.000000   1.000000
   82        1.995603      2.216651   1.000000   1.000000
   83        2.154484      2.515737   1.000000   1.000000
   84        2.154485      2.515738   1.000000   1.000000
   85        2.291917      2.705655   1.000000   1.000000
   86        2.291918      2.705657   1.000000   1.000000
   87        2.355808      2.934968   1.000000   1.000000
   88        2.355809      2.934969   1.000000   1.000000
   89        2.664280      5.639926   1.000000   0.000000
   90        2.664281      5.639928   1.000000   0.000000
   91        2.678220      6.101752   1.000000   0.000000
   92        2.678221      6.101754   1.000000   0.000000
   93        2.925091      6.326517   1.000000   0.000000
   94        2.925091      6.326518   1.000000   0.000000
   95        3.114808      6.370942   1.000000   0.000000
   96        3.114809      6.370943   1.000000   0.000000
   97        6.167730      6.659868   0.000000   0.000000
   98        6.167732      6.659871   0.000000   0.000000
   99        6.254543      7.107459   0.000000   0.000000
  100        6.254544      7.107462   0.000000   0.000000
  101        6.378034      7.862020   0.000000   0.000000
  102        6.378034      7.862021   0.000000   0.000000
  103        6.625216      8.086545   0.000000   0.000000
  104        6.625218      8.086546   0.000000   0.000000
  105        7.071287      8.376727   0.000000   0.000000
  106        7.071289      8.376727   0.000000   0.000000
  107        7.325836      8.465013   0.000000   0.000000
  108        7.325839      8.465014   0.000000   0.000000
  109       10.283265     10.380827   0.000000   0.000000
  110       10.283268     10.380830   0.000000   0.000000
  111       10.534432     10.669284   0.000000   0.000000
  112       10.534433     10.669285   0.000000   0.000000
  113       10.865547     10.994298   0.000000   0.000000
  114       10.865548     10.994299   0.000000   0.000000
  115       11.210357     11.373970   0.000000   0.000000
  116       11.210360     11.373973   0.000000   0.000000
  117       11.661778     11.744183   0.000000   0.000000
  118       11.661781     11.744186   0.000000   0.000000
  119       13.798313     13.948829   0.000000   0.000000
  120       13.798314     13.948831   0.000000   0.000000
 
  0.0000000E+00  0.1250000E+00  0.0000000E+00  0.7812500E-02
    1      -60.419040    -58.276833   1.000000   1.000000
    2      -60.418909    -58.276685   1.000000   1.000000
    3      -60.412379    -58.269438   1.000000   1.000000
    4      -60.412353    -58.269390   1.000000   1.000000
    5      -60.391721    -58.263760   1.000000   1.000000
    6      -60.391656    -58.263713   1.000000   1.000000
    7      -60.388389    -58.259958   1.000000   1.000000
    8      -60.388384    -58.259951   1.000000   1.000000
    9      -60.366958    -58.247341   1.000000   1.000000
   10      -60.366715    -58.247093   1.000000   1.000000
   11      -60.366550    -58.246686   1.000000   1.000000
   12      -60.366451    -58.246527   1.000000   1.000000
   13      -15.426260    -15.358166   1.000000   1.000000
   14      -14.922489    -14.856637   1.000000   1.000000
   15      -14.500306    -14.403528   1.000000   1.000000
   16      -14.242911    -14.172447   1.000000   1.000000
   17      -14.212262    -14.094178   1.000000   1.000000
   18      -14.127913    -14.045801   1.000000   1.000000
   19      -14.025897    -13.887088   1.000000   1.000000
   20      -13.906858    -13.787206   1.000000   1.000000
   21      -13.856156    -13.740885   1.000000   1.000000
   22      -13.803555    -13.680346   1.000000   1.000000
   23      -13.778166    -13.638398   1.000000   1.000000
   24      -13.699720    -13.632289   1.000000   1.000000
   25      -13.638063    -13.506195   1.000000   1.000000
   26      -13.539736    -13.457589   1.000000   1.000000
   27      -13.457093    -13.335918   1.000000   1.000000
   28      -13.338059    -13.258222   1.000000   1.000000
   29       -3.250768     -3.074911   1.000000   1.000000
   30       -3.193319     -2.834433   1.000000   1.000000
   31       -3.005616     -2.796981   1.000000   1.000000
   32       -2.980940     -2.533751   1.000000   1.000000
   33       -2.899804     -2.391056   1.000000   1.000000
   34       -2.816767     -2.236123   1.000000   1.000000
   35       -2.807984     -2.214502   1.000000   1.000000
   36       -2.751617     -2.055535   1.000000   1.000000
   37       -2.692964     -1.978451   1.000000   1.000000
   38       -2.659160     -1.935347   1.000000   1.000000
   39       -2.506753     -1.632122   1.000000   1.000000
   40       -2.473815     -1.564304   1.000000   1.000000
   41       -2.419357     -1.273920   1.000000   1.000000
   42       -2.300895     -1.263822   1.000000   1.000000
   43       -2.066060     -1.166233   1.000000   1.000000
   44       -2.056554     -0.924504   1.000000   1.000000
   45       -1.976038     -0.858739   1.000000   1.000000
   46       -1.869067     -0.799067   1.000000   1.000000
   47       -1.565600     -0.699847   1.000000   1.000000
   48       -1.201993     -0.684864   1.000000   1.000000
   49       -1.004149     -0.650726   1.000000   1.000000
   50       -0.980087     -0.436538   1.000000   1.000000
   51       -0.879881     -0.194322   1.000000   1.000000
   52       -0.872350     -0.072636   1.000000   1.000000
   53       -0.756531      0.153481   1.000000   1.000000
   54       -0.670559      0.171498   1.000000   1.000000
   55       -0.487714      0.229463   1.000000   1.000000
   56       -0.454670      0.306702   1.000000   1.000000
   57       -0.414340      0.579225   1.000000   1.000000
   58       -0.413749      0.589246   1.000000   1.000000
   59       -0.285572      0.604817   1.000000   1.000000
   60       -0.217446      0.767397   1.000000   1.000000
   61       -0.057141      0.823889   1.000000   1.000000
   62        0.019698      0.904509   1.000000   1.000000
   63        0.062362      0.991224   1.000000   1.000000
   64        0.083307      1.054283   1.000000   1.000000
   65        0.165106      1.102075   1.000000   1.000000
   66        0.302272      1.105717   1.000000   1.000000
   67        0.337918      1.203299   1.000000   1.000000
   68        0.356463      1.275418   1.000000   1.000000
   69        0.561526      1.386627   1.000000   1.000000
   70        0.566705      1.529590   1.000000   1.000000
   71        0.600119      1.554332   1.000000   1.000000
   72        0.708971      1.565826   1.000000   1.000000
   73        0.813082      1.635661   1.000000   1.000000
   74        1.017504      1.696148   1.000000   1.000000
   75        1.103994      1.814646   1.000000   1.000000
   76        1.123923      1.905272   1.000000   1.000000
   77        1.256476      2.032927   1.000000   1.000000
   78        1.486356      2.047358   1.000000   1.000000
   79        1.601659      2.079738   1.000000   1.000000
   80        1.757789      2.177527   1.000000   1.000000
   81        1.872694      2.285329   1.000000   1.000000
   82        1.931133      2.372817   1.000000   1.000000
   83        2.053177      2.493285   1.000000   1.000000
   84        2.071216      2.519064   1.000000   1.000000
   85        2.265348      2.751786   1.000000   1.000000
   86        2.302130      2.767776   1.000000   1.000000
   87        2.389480      2.953642   1.000000   1.000000
   88        2.468024      3.075448   1.000000   1.000000
   89        2.633212      5.470079   1.000000   0.000000
   90        2.677484      5.915714   1.000000   0.000000
   91        2.744041      6.001552   1.000000   0.000000
   92        2.895385      6.139344   1.000000   0.000000
   93        2.915214      6.218942   1.000000   0.000000
   94        3.049316      6.285864   1.000000   0.000000
   95        3.094488      6.365339   1.000000   0.000000
   96        3.122198      6.494856   1.000000   0.000000
   97        6.115470      6.597054   0.000000   0.000000
   98        6.148188      6.745177   0.000000   0.000000
   99        6.270783      7.064542   0.000000   0.000000
  100        6.281929      7.208758   0.000000   0.000000
  101        6.312963      7.793300   0.000000   0.000000
  102        6.375137      7.912855   0.000000   0.000000
  103        6.735334      7.974939   0.000000   0.000000
  104        6.756962      8.190178   0.000000   0.000000
  105        6.812285      8.262190   0.000000   0.000000
  106        7.203470      8.361904   0.000000   0.000000
  107        7.212519      8.421050   0.000000   0.000000
  108        7.404195      8.572072   0.000000   0.000000
  109        9.925165     10.047979   0.000000   0.000000
  110       10.357934     10.488332   0.000000   0.000000
  111       10.424759     10.496016   0.000000   0.000000
  112       10.532366     10.688155   0.000000   0.000000
  113       10.805789     10.941695   0.000000   0.000000
  114       11.030799     11.181991   0.000000   0.000000
  115       11.268635     11.435575   0.000000   0.000000
  116       11.351735     11.437492   0.000000   0.000000
  117       11.794521     11.859697   0.000000   0.000000
  118       12.338197     12.430101   0.000000   0.000000
  119       12.689766     12.886537   0.000000   0.000000
  120       14.446187     14.623676   0.000000   0.000000
 
  0.2500000E+00  0.1250000E+00  0.0000000E+00  0.7812500E-02
    1      -60.418981    -58.276757   1.000000   1.000000
    2      -60.418935    -58.276712   1.000000   1.000000
    3      -60.412360    -58.269424   1.000000   1.000000
    4      -60.412300    -58.269301   1.000000   1.000000
    5      -60.391618    -58.263655   1.000000   1.000000
    6      -60.391585    -58.263611   1.000000   1.000000
    7      -60.388357    -58.259923   1.000000   1.000000
    8      -60.388342    -58.259921   1.000000   1.000000
    9      -60.366919    -58.247289   1.000000   1.000000
   10      -60.366712    -58.247091   1.000000   1.000000
   11      -60.366517    -58.246644   1.000000   1.000000
   12      -60.366318    -58.246392   1.000000   1.000000
   13      -15.376909    -15.308571   1.000000   1.000000
   14      -15.046401    -14.977988   1.000000   1.000000
   15      -14.401488    -14.307348   1.000000   1.000000
   16      -14.232798    -14.158168   1.000000   1.000000
   17      -14.227159    -14.116401   1.000000   1.000000
   18      -14.150638    -14.068550   1.000000   1.000000
   19      -14.011679    -13.873208   1.000000   1.000000
   20      -13.928597    -13.801217   1.000000   1.000000
   21      -13.851886    -13.735018   1.000000   1.000000
   22      -13.810951    -13.688735   1.000000   1.000000
   23      -13.748035    -13.614688   1.000000   1.000000
   24      -13.665673    -13.590246   1.000000   1.000000
   25      -13.639167    -13.514268   1.000000   1.000000
   26      -13.527121    -13.438474   1.000000   1.000000
   27      -13.466911    -13.351134   1.000000   1.000000
   28      -13.390301    -13.311281   1.000000   1.000000