   24   24    1    2
  0.1055123E+02  0.9097362E-09  0.5635252E-09  0.4939867E-09  0.5000000E-15
  1.000000000000000E-004
  CAR 
 NiWO4                                   
    184    132    120
 
  0.0000000E+00  0.0000000E+00  0.0000000E+00  0.3906250E-02
    1      -60.497150    -58.302618   1.000000   1.000000
    2      -60.497071    -58.302506   1.000000   1.000000
    3      -60.490539    -58.295417   1.000000   1.000000
    4      -60.490459    -58.295416   1.000000   1.000000
    5      -60.470391    -58.290204   1.000000   1.000000
    6      -60.470191    -58.289966   1.000000   1.000000
    7      -60.467003    -58.286337   1.000000   1.000000
    8      -60.466880    -58.286178   1.000000   1.000000
    9      -60.446123    -58.273657   1.000000   1.000000
   10      -60.445940    -58.273432   1.000000   1.000000
   11      -60.445746    -58.272755   1.000000   1.000000
   12      -60.445621    -58.272598   1.000000   1.000000
   13      -15.436697    -15.382158   1.000000   1.000000
   14      -14.916813    -14.866341   1.000000   1.000000
   15      -14.441162    -14.356487   1.000000   1.000000
   16      -14.223951    -14.171734   1.000000   1.000000
   17      -14.179505    -14.060232   1.000000   1.000000
   18      -14.046065    -13.958266   1.000000   1.000000
   19      -14.025840    -13.898527   1.000000   1.000000
   20      -13.882435    -13.754045   1.000000   1.000000
   21      -13.821798    -13.695972   1.000000   1.000000
   22      -13.795408    -13.665122   1.000000   1.000000
   23      -13.758144    -13.626977   1.000000   1.000000
   24      -13.679626    -13.617405   1.000000   1.000000
   25      -13.620927    -13.481830   1.000000   1.000000
   26      -13.528334    -13.473407   1.000000   1.000000
   27      -13.468403    -13.329857   1.000000   1.000000
   28      -13.323070    -13.263534   1.000000   1.000000
   29       -3.776040     -3.180830   1.000000   1.000000
   30       -3.572475     -2.901404   1.000000   1.000000
   31       -3.515214     -2.714337   1.000000   1.000000
   32       -3.485814     -2.514862   1.000000   1.000000
   33       -3.394101     -2.473618   1.000000   1.000000
   34       -3.335986     -2.332398   1.000000   1.000000
   35       -3.314170     -2.270012   1.000000   1.000000
   36       -3.286445     -2.267033   1.000000   1.000000
   37       -3.240597     -2.209411   1.000000   1.000000
   38       -3.036216     -1.909130   1.000000   1.000000
   39       -2.868675     -1.772297   1.000000   1.000000
   40       -2.631019     -1.695722   1.000000   1.000000
   41       -2.593908     -1.297908   1.000000   1.000000
   42       -2.538447     -1.244750   1.000000   1.000000
   43       -2.456475     -1.152716   1.000000   1.000000
   44       -2.411046     -1.034927   1.000000   1.000000
   45       -2.409392     -1.020856   1.000000   1.000000
   46       -2.216507     -0.848233   1.000000   1.000000
   47       -1.940183     -0.799132   1.000000   1.000000
   48       -1.654654     -0.749748   1.000000   1.000000
   49       -1.576302     -0.597144   1.000000   1.000000
   50       -1.324711     -0.477304   1.000000   1.000000
   51       -1.257617     -0.431834   1.000000   1.000000
   52       -1.168522     -0.355206   1.000000   1.000000
   53       -1.134272     -0.127193   1.000000   1.000000
   54       -1.122441     -0.015919   1.000000   1.000000
   55       -1.021231      0.097840   1.000000   1.000000
   56       -0.902370      0.108740   1.000000   1.000000
   57       -0.895120      0.134619   1.000000   1.000000
   58       -0.848820      0.180960   1.000000   1.000000
   59       -0.710616      0.191573   1.000000   1.000000
   60       -0.663254      0.270830   1.000000   1.000000
   61       -0.641165      0.273189   1.000000   1.000000
   62       -0.522246      0.552543   1.000000   1.000000
   63       -0.374674      0.556815   1.000000   1.000000
   64       -0.325631      0.592193   1.000000   1.000000
   65       -0.179036      0.735741   1.000000   1.000000
   66       -0.010258      0.782650   1.000000   1.000000
   67        0.126013      0.917994   1.000000   1.000000
   68        0.190355      1.053021   1.000000   1.000000
   69        0.202345      1.196834   1.000000   1.000000
   70        0.347802      1.256941   1.000000   1.000000
   71        0.569186      1.284506   1.000000   1.000000
   72        0.602213      1.342547   1.000000   1.000000
   73        0.866339      1.391996   1.000000   1.000000
   74        0.919002      1.638910   1.000000   1.000000
   75        0.988030      1.649245   1.000000   1.000000
   76        1.093689      1.807623   1.000000   1.000000
   77        1.112090      1.850059   1.000000   1.000000
   78        1.192133      1.870133   1.000000   1.000000
   79        1.480159      2.007220   1.000000   1.000000
   80        1.562247      2.094524   1.000000   1.000000
   81        1.591483      2.156117   1.000000   1.000000
   82        1.758507      2.237512   1.000000   1.000000
   83        2.093491      2.408298   1.000000   1.000000
   84        2.136359      2.451257   1.000000   1.000000
   85        2.156820      2.716520   1.000000   1.000000
   86        2.222859      2.817266   1.000000   1.000000
   87        2.259172      2.943278   1.000000   1.000000
   88        2.309415      2.993711   1.000000   1.000000
   89        2.519646      5.611717   1.000000   0.000000
   90        2.642359      6.002613   1.000000   0.000000
   91        2.833366      6.106157   1.000000   0.000000
   92        2.852560      6.143285   1.000000   0.000000
   93        2.900734      6.257755   1.000000   0.000000
   94        2.916256      6.438549   1.000000   0.000000
   95        2.999394      6.471500   1.000000   0.000000
   96        3.014164      6.497680   1.000000   0.000000
   97        6.082611      6.647287   0.000000   0.000000
   98        6.157048      6.765196   0.000000   0.000000
   99        6.246446      7.148994   0.000000   0.000000
  100        6.251100      7.241844   0.000000   0.000000
  101        6.364125      8.498305   0.000000   0.000000
  102        6.464366      8.681946   0.000000   0.000000
  103        6.662042      8.761765   0.000000   0.000000
  104        6.727682      8.875520   0.000000   0.000000
  105        6.728297      8.904777   0.000000   0.000000
  106        7.213416      8.913772   0.000000   0.000000
  107        7.214633      8.922160   0.000000   0.000000
  108        7.387020      9.149403   0.000000   0.000000
  109        9.769883      9.900796   0.000000   0.000000
  110       10.343808     10.390981   0.000000   0.000000
  111       10.346861     10.527415   0.000000   0.000000
  112       10.678484     10.884609   0.000000   0.000000
  113       11.036428     11.154954   0.000000   0.000000
  114       11.071589     11.206718   0.000000   0.000000
  115       11.131280     11.402888   0.000000   0.000000
  116       11.327428     11.411238   0.000000   0.000000
  117       11.802631     11.865602   0.000000   0.000000
  118       12.232250     12.311425   0.000000   0.000000
  119       12.485500     12.686516   0.000000   0.000000
  120       14.394745     14.628850   0.000000   0.000000
 
  0.2500000E+00  0.0000000E+00  0.0000000E+00  0.7812500E-02
    1      -60.497114    -58.302569   1.000000   1.000000
    2      -60.497043    -58.302483   1.000000   1.000000
    3      -60.490545    -58.295519   1.000000   1.000000
    4      -60.490456    -58.295346   1.000000   1.000000
    5      -60.470327    -58.290126   1.000000   1.000000
    6      -60.470198    -58.289985   1.000000   1.000000
    7      -60.467055    -58.286379   1.000000   1.000000
    8      -60.466920    -58.286254   1.000000   1.000000
    9      -60.446123    -58.273632   1.000000   1.000000
   10      -60.445969    -58.273480   1.000000   1.000000
   11      -60.445771    -58.272793   1.000000   1.000000
   12      -60.445503    -58.272469   1.000000   1.000000
   13      -15.385895    -15.331295   1.000000   1.000000
   14      -15.044399    -14.991005   1.000000   1.000000
   15      -14.329460    -14.246107   1.000000   1.000000
   16      -14.218427    -14.157797   1.000000   1.000000
   17      -14.187109    -14.079654   1.000000   1.000000
   18      -14.079783    -13.992621   1.000000   1.000000
   19      -14.011830    -13.885853   1.000000   1.000000
   20      -13.920140    -13.795219   1.000000   1.000000
   21      -13.809290    -13.682317   1.000000   1.000000
   22      -13.766587    -13.635431   1.000000   1.000000
   23      -13.753763    -13.619125   1.000000   1.000000
   24      -13.640183    -13.570809   1.000000   1.000000
   25      -13.631331    -13.500806   1.000000   1.000000
   26      -13.517784    -13.448475   1.000000   1.000000
   27      -13.475617    -13.348060   1.000000   1.000000
   28      -13.377564    -13.318441   1.000000   1.000000
   29       -3.753593     -3.100058   1.000000   1.000000
   30       -3.535880     -2.862429   1.000000   1.000000
   31       -3.520744     -2.666701   1.000000   1.000000
   32       -3.512348     -2.605763   1.000000   1.000000
   33       -3.460865     -2.594408   1.000000   1.000000
   34       -3.338630     -2.388722   1.000000   1.000000
   35       -3.330561     -2.358942   1.000000   1.000000
   36       -3.328547     -2.274849   1.000000   1.000000
   37       -3.183710     -2.050260   1.000000   1.000000
   38       -2.999367     -1.992421   1.000000   1.000000
   39       -2.791252     -1.575432   1.000000   1.000000
   40       -2.741385     -1.482406   1.000000   1.000000
   41       -2.654162     -1.439035   1.000000   1.000000
   42       -2.545358     -1.280619   1.000000   1.000000
   43       -2.515379     -1.092518   1.000000   1.000000
   44       -2.415583     -1.046692   1.000000   1.000000
   45       -2.126361     -1.014910   1.000000   1.000000
   46       -1.967591     -0.847369   1.000000   1.000000
   47       -1.923220     -0.837334   1.000000   1.000000
   48       -1.690302     -0.822691   1.000000   1.000000
   49       -1.677238     -0.792963   1.000000   1.000000
   50       -1.385279     -0.621713   1.000000   1.000000
   51       -1.311909     -0.309930   1.000000   1.000000
   52       -1.290198     -0.285133   1.000000   1.000000
   53       -1.257979     -0.205071   1.000000   1.000000
   54       -1.064129     -0.113911   1.000000   1.000000
   55       -1.063789      0.063139   1.000000   1.000000
   56       -1.038349      0.109273   1.000000   1.000000
   57       -0.871465      0.145367   1.000000   1.000000
   58       -0.864565      0.157660   1.000000   1.000000
   59       -0.770730      0.198074   1.000000   1.000000
   60       -0.758216      0.214172   1.000000   1.000000
   61       -0.510380      0.420454   1.000000   1.000000
   62       -0.497664      0.568919   1.000000   1.000000
   63       -0.366303      0.577611   1.000000   1.000000
   64       -0.355246      0.586315   1.000000   1.000000
   65       -0.074214      0.794792   1.000000   1.000000
   66        0.048851      0.968019   1.000000   1.000000
   67        0.087048      1.011453   1.000000   1.000000
   68        0.103615      1.119600   1.000000   1.000000
   69        0.121181      1.139793   1.000000   1.000000
   70        0.386810      1.224696   1.000000   1.000000
   71        0.531848      1.297482   1.000000   1.000000
   72        0.813684      1.320827   1.000000   1.000000
   73        0.905067      1.480810   1.000000   1.000000
   74        1.023202      1.596734   1.000000   1.000000
   75        1.038717      1.632051   1.000000   1.000000
   76        1.098763      1.820207   1.000000   1.000000
   77        1.111568      1.848915   1.000000   1.000000
   78        1.275613      1.910526   1.000000   1.000000
   79        1.471119      2.046601   1.000000   1.000000
   80        1.499805      2.114942   1.000000   1.000000
   81        1.720842      2.139431   1.000000   1.000000
   82        1.789522      2.159838   1.000000   1.000000
   83        2.012823      2.391264   1.000000   1.000000
   84        2.084156      2.448590   1.000000   1.000000
   85        2.101723      2.661459   1.000000   1.000000
   86        2.321567      2.809564   1.000000   1.000000
   87        2.392861      2.859058   1.000000   1.000000
   88        2.414449      2.961779   1.000000   1.000000
   89        2.511437      5.660808   1.000000   0.000000
   90        2.517645      5.911978   1.000000   0.000000
   91        2.643853      6.109953   1.000000   0.000000
   92        2.743487      6.219680   1.000000   0.000000
   93        2.830078      6.224747   1.000000   0.000000
   94        2.903847      6.408165   1.000000   0.000000
   95        3.004069      6.501613   1.000000   0.000000
   96        3.036026      6.512651   1.000000   0.000000
   97        6.106966      6.646876   0.000000   0.000000
   98        6.189153      6.739805   0.000000   0.000000
   99        6.226732      7.168391   0.000000   0.000000
  100        6.274100      7.237561   0.000000   0.000000
  101        6.334876      8.511466   0.000000   0.000000
  102        6.429830      8.706350   0.000000   0.000000
  103        6.635752      8.722734   0.000000   0.000000
  104        6.648921      8.807073   0.000000   0.000000
  105        6.889046      8.877006   0.000000   0.000000
  106        7.173477      8.970000   0.000000   0.000000
  107        7.254507      9.024303   0.000000   0.000000
  108        7.371176      9.101491   0.000000   0.000000
  109        9.989909     10.112564   0.000000   0.000000
  110       10.307950     10.371713   0.000000   0.000000
  111       10.314803     10.478774   0.000000   0.000000
  112       10.694994     10.896610   0.000000   0.000000
  113       10.943122     11.080879   0.000000   0.000000
  114       11.138184     11.287817   0.000000   0.000000
  115       11.174924     11.419662   0.000000   0.000000
  116       11.448254     11.544085   0.000000   0.000000
  117       11.460948     11.550715   0.000000   0.000000
  118       11.805997     11.891391   0.000000   0.000000
  119       13.155658     13.314781   0.000000   0.000000
  120       14.299255     14.434520   0.000000   0.000000
 
  0.5000000E+00  0.0000000E+00  0.0000000E+00  0.3906250E-02
    1      -60.497067    -58.302508   1.000000   1.000000
    2      -60.497066    -58.302508   1.000000   1.000000
    3      -60.490441    -58.295346   1.000000   1.000000
    4      -60.490441    -58.295346   1.000000   1.000000
    5      -60.470192    -58.289984   1.000000   1.000000
    6      -60.470190    -58.289982   1.000000   1.000000
    7      -60.466967    -58.286306   1.000000   1.000000
    8      -60.466964    -58.286305   1.000000   1.000000
    9      -60.446015    -58.273498   1.000000   1.000000
   10      -60.446013    -58.273497   1.000000   1.000000
   11      -60.445512    -58.272470   1.000000   1.000000
   12      -60.445510    -58.272469   1.000000   1.000000
   13      -15.242969    -15.188410   1.000000   1.000000
   14      -15.242968    -15.188410   1.000000   1.000000
   15      -14.203732    -14.121274   1.000000   1.000000
   16      -14.203731    -14.121273   1.000000   1.000000
   17      -14.175989    -14.090833   1.000000   1.000000
   18      -14.175989    -14.090833   1.000000   1.000000
   19      -13.973269    -13.849341   1.000000   1.000000
   20      -13.973268    -13.849341   1.000000   1.000000
   21      -13.785727    -13.656159   1.000000   1.000000
   22      -13.785727    -13.656159   1.000000   1.000000
   23      -13.690247    -13.551758   1.000000   1.000000
   24      -13.690246    -13.551758   1.000000   1.000000
   25      -13.507689    -13.448917   1.000000   1.000000
   26      -13.507688    -13.448916   1.000000   1.000000
   27      -13.495038    -13.395045   1.000000   1.000000
   28      -13.495037    -13.395044   1.000000   1.000000
   29       -3.672704     -2.889861   1.000000   1.000000
   30       -3.672704     -2.889861   1.000000   1.000000
   31       -3.505144     -2.751703   1.000000   1.000000
   32       -3.505144     -2.751703   1.000000   1.000000
   33       -3.400082     -2.527693   1.000000   1.000000
   34       -3.400082     -2.527692   1.000000   1.000000
   35       -3.330325     -2.199882   1.000000   1.000000
   36       -3.330325     -2.199881   1.000000   1.000000
   37       -3.058740     -2.149006   1.000000   1.000000
   38       -3.058739     -2.149005   1.000000   1.000000
   39       -2.892876     -1.289942   1.000000   1.000000
   40       -2.892876     -1.289940   1.000000   1.000000
   41       -2.558259     -1.271097   1.000000   1.000000
   42       -2.558258     -1.271097   1.000000   1.000000
   43       -2.235370     -1.190723   1.000000   1.000000
   44       -2.235370     -1.190722   1.000000   1.000000
   45       -2.123980     -1.031110   1.000000   1.000000
   46       -2.123979     -1.031107   1.000000   1.000000
   47       -1.723758     -0.857248   1.000000   1.000000
   48       -1.723758     -0.857244   1.000000   1.000000
   49       -1.620019     -0.816135   1.000000   1.000000
   50       -1.620019     -0.816134   1.000000   1.000000
   51       -1.359085     -0.274510   1.000000   1.000000
   52       -1.359084     -0.274507   1.000000   1.000000
   53       -1.281350     -0.220182   1.000000   1.000000
   54       -1.281350     -0.220178   1.000000   1.000000
   55       -1.018157      0.125618   1.000000   1.000000
   56       -1.018157      0.125619   1.000000   1.000000
   57       -0.877014      0.135868   1.000000   1.000000
   58       -0.877013      0.135869   1.000000   1.000000
   59       -0.845725      0.204724   1.000000   1.000000
   60       -0.845724      0.204728   1.000000   1.000000
   61       -0.434012      0.521107   1.000000   1.000000
   62       -0.434011      0.521110   1.000000   1.000000
   63       -0.263565      0.576167   1.000000   1.000000
   64       -0.263565      0.576169   1.000000   1.000000
   65       -0.184261      0.993051   1.000000   1.000000
   66       -0.184260      0.993054   1.000000   1.000000
   67        0.056638      1.103827   1.000000   1.000000
   68        0.056639      1.103829   1.000000   1.000000
   69        0.338026      1.150353   1.000000   1.000000
   70        0.338026      1.150356   1.000000   1.000000
   71        0.797223      1.435784   1.000000   1.000000
   72        0.797223      1.435785   1.000000   1.000000
   73        0.824503      1.494140   1.000000   1.000000
   74        0.824503      1.494142   1.000000   1.000000
   75        1.254691      1.695954   1.000000   1.000000
   76        1.254691      1.695955   1.000000   1.000000
   77        1.266078      1.955514   1.000000   1.000000
   78        1.266078      1.955516   1.000000   1.000000
   79        1.417011      2.026793   1.000000   1.000000
   80        1.417011      2.026794   1.000000   1.000000
   81        1.962103      2.148891   1.000000   1.000000
   82        1.962103      2.148893   1.000000   1.000000
   83        2.076675      2.412241   1.000000   1.000000
   84        2.076675      2.412243   1.000000   1.000000
   85        2.098767      2.629949   1.000000   1.000000
   86        2.098768      2.629951   1.000000   1.000000
   87        2.315201      2.912538   1.000000   1.000000
   88        2.315202      2.912539   1.000000   1.000000
   89        2.553890      5.777506   1.000000   0.000000
   90        2.553891      5.777508   1.000000   0.000000
   91        2.554394      6.148486   1.000000   0.000000
   92        2.554394      6.148487   1.000000   0.000000
   93        2.895895      6.329937   1.000000   0.000000
   94        2.895896      6.329939   1.000000   0.000000
   95        2.976512      6.531093   1.000000   0.000000
   96        2.976513      6.531095   1.000000   0.000000
   97        6.166174      6.678072   0.000000   0.000000
   98        6.166176      6.678074   0.000000   0.000000
   99        6.264103      7.210081   0.000000   0.000000
  100        6.264103      7.210083   0.000000   0.000000
  101        6.347999      8.582992   0.000000   0.000000
  102        6.347999      8.582993   0.000000   0.000000
  103        6.625631      8.772884   0.000000   0.000000
  104        6.625633      8.772885   0.000000   0.000000
  105        7.055916      8.967491   0.000000   0.000000
  106        7.055918      8.967492   0.000000   0.000000
  107        7.324390      9.040547   0.000000   0.000000
  108        7.324393      9.040548   0.000000   0.000000
  109       10.281307     10.394884   0.000000   0.000000
  110       10.281309     10.394887   0.000000   0.000000
  111       10.545459     10.682364   0.000000   0.000000
  112       10.545459     10.682365   0.000000   0.000000
  113       10.868036     11.021997   0.000000   0.000000
  114       10.868038     11.021998   0.000000   0.000000
  115       11.208663     11.400341   0.000000   0.000000
  116       11.208666     11.400345   0.000000   0.000000
  117       11.660997     11.744133   0.000000   0.000000
  118       11.661001     11.744136   0.000000   0.000000
  119       13.806535     13.960460   0.000000   0.000000
  120       13.806538     13.960473   0.000000   0.000000
 
  0.0000000E+00  0.1250000E+00  0.0000000E+00  0.7812500E-02
    1      -60.497135    -58.302596   1.000000   1.000000
    2      -60.497006    -58.302446   1.000000   1.000000
    3      -60.490519    -58.295468   1.000000   1.000000
    4      -60.490491    -58.295419   1.000000   1.000000
    5      -60.470308    -58.290111   1.000000   1.000000
    6      -60.470244    -58.290065   1.000000   1.000000
    7      -60.466992    -58.286320   1.000000   1.000000
    8      -60.466988    -58.286313   1.000000   1.000000
    9      -60.446167    -58.273663   1.000000   1.000000
   10      -60.445923    -58.273416   1.000000   1.000000
   11      -60.445749    -58.272767   1.000000   1.000000
   12      -60.445649    -58.272603   1.000000   1.000000
   13      -15.401810    -15.347486   1.000000   1.000000
   14      -14.901950    -14.847190   1.000000   1.000000
   15      -14.467967    -14.385931   1.000000   1.000000
   16      -14.222064    -14.162181   1.000000   1.000000
   17      -14.196645    -14.076927   1.000000   1.000000
   18      -14.109904    -14.035571   1.000000   1.000000
   19      -14.009566    -13.866692   1.000000   1.000000
   20      -13.885715    -13.768399   1.000000   1.000000
   21      -13.831690    -13.721655   1.000000   1.000000
   22      -13.782366    -13.660490   1.000000   1.000000
   23      -13.761251    -13.624349   1.000000   1.000000
   24      -13.683014    -13.615971   1.000000   1.000000
   25      -13.617609    -13.485628   1.000000   1.000000
   26      -13.518364    -13.445536   1.000000   1.000000
   27      -13.447805    -13.319737   1.000000   1.000000
   28      -13.319210    -13.247520   1.000000   1.000000
   29       -3.734207     -3.124411   1.000000   1.000000
   30       -3.546456     -2.863109   1.000000   1.000000
   31       -3.520379     -2.853291   1.000000   1.000000
   32       -3.483456     -2.554990   1.000000   1.000000
   33       -3.471709     -2.427625   1.000000   1.000000
   34       -3.353431     -2.321167   1.000000   1.000000
   35       -3.338357     -2.292617   1.000000   1.000000
   36       -3.256899     -2.153604   1.000000   1.000000
   37       -3.231292     -2.045355   1.000000   1.000000
   38       -3.006193     -1.925972   1.000000   1.000000
   39       -2.998197     -1.819540   1.000000   1.000000
   40       -2.588735     -1.625907   1.000000   1.000000
   41       -2.567668     -1.280841   1.000000   1.000000
   42       -2.560047     -1.241769   1.000000   1.000000
   43       -2.400456     -1.204907   1.000000   1.000000
   44       -2.373953     -1.031180   1.000000   1.000000
   45       -2.242810     -0.942293   1.000000   1.000000
   46       -2.155552     -0.796791   1.000000   1.000000
   47       -1.886384     -0.791123   1.000000   1.000000
   48       -1.645068     -0.736324   1.000000   1.000000
   49       -1.573308     -0.732201   1.000000   1.000000
   50       -1.418801     -0.677495   1.000000   1.000000
   51       -1.286408     -0.468173   1.000000   1.000000
   52       -1.265193     -0.261231   1.000000   1.000000
   53       -1.122649     -0.109946   1.000000   1.000000
   54       -1.071069      0.006344   1.000000   1.000000
   55       -1.040831      0.018000   1.000000   1.000000
   56       -1.037321      0.102675   1.000000   1.000000
   57       -0.923031      0.129816   1.000000   1.000000
   58       -0.841605      0.195058   1.000000   1.000000
   59       -0.817659      0.200243   1.000000   1.000000
   60       -0.651452      0.283883   1.000000   1.000000
   61       -0.563702      0.291853   1.000000   1.000000
   62       -0.408432      0.369977   1.000000   1.000000
   63       -0.324265      0.629024   1.000000   1.000000
   64       -0.277724      0.707259   1.000000   1.000000
   65       -0.157804      0.739168   1.000000   1.000000
   66       -0.055713      0.867685   1.000000   1.000000
   67        0.127352      0.940310   1.000000   1.000000
   68        0.229861      0.977112   1.000000   1.000000
   69        0.247505      1.163220   1.000000   1.000000
   70        0.444296      1.190427   1.000000   1.000000
   71        0.489427      1.259040   1.000000   1.000000
   72        0.510938      1.340230   1.000000   1.000000
   73        0.573774      1.399087   1.000000   1.000000
   74        0.695712      1.648545   1.000000   1.000000
   75        1.097001      1.689403   1.000000   1.000000
   76        1.119876      1.751341   1.000000   1.000000
   77        1.121948      1.790779   1.000000   1.000000
   78        1.381276      1.880865   1.000000   1.000000
   79        1.558349      2.060580   1.000000   1.000000
   80        1.582620      2.112193   1.000000   1.000000
   81        1.663649      2.148228   1.000000   1.000000
   82        1.745576      2.158425   1.000000   1.000000
   83        1.966469      2.372887   1.000000   1.000000
   84        2.082864      2.436381   1.000000   1.000000
   85        2.169752      2.720252   1.000000   1.000000
   86        2.242918      2.782925   1.000000   1.000000
   87        2.267831      2.932285   1.000000   1.000000
   88        2.369329      3.002761   1.000000   1.000000
   89        2.531116      5.638779   1.000000   0.000000
   90        2.645358      6.009127   1.000000   0.000000
   91        2.742060      6.053937   1.000000   0.000000
   92        2.849141      6.137862   1.000000   0.000000
   93        2.870753      6.306032   1.000000   0.000000
   94        2.886602      6.401628   1.000000   0.000000
   95        2.931300      6.462852   1.000000   0.000000
   96        2.994971      6.568280   1.000000   0.000000
   97        6.109824      6.658989   0.000000   0.000000
   98        6.147443      6.759251   0.000000   0.000000
   99        6.259668      7.198904   0.000000   0.000000
  100        6.287395      7.209172   0.000000   0.000000
  101        6.289007      8.528494   0.000000   0.000000
  102        6.385044      8.655180   0.000000   0.000000
  103        6.735326      8.683593   0.000000   0.000000
  104        6.743492      8.860228   0.000000   0.000000
  105        6.800089      8.886975   0.000000   0.000000
  106        7.186064      8.929714   0.000000   0.000000
  107        7.207993      8.985182   0.000000   0.000000
  108        7.405470      9.152851   0.000000   0.000000
  109        9.936292     10.060495   0.000000   0.000000
  110       10.357695     10.500238   0.000000   0.000000
  111       10.425197     10.522242   0.000000   0.000000
  112       10.531315     10.712672   0.000000   0.000000
  113       10.802424     10.963963   0.000000   0.000000
  114       11.034818     11.211202   0.000000   0.000000
  115       11.266435     11.432221   0.000000   0.000000
  116       11.345431     11.463563   0.000000   0.000000
  117       11.797311     11.860194   0.000000   0.000000
  118       12.352350     12.445176   0.000000   0.000000
  119       12.700550     12.894331   0.000000   0.000000
  120       14.455510     14.637257   0.000000   0.000000
 
  0.2500000E+00  0.1250000E+00  0.0000000E+00  0.7812500E-02
    1      -60.497077    -58.302521   1.000000   1.000000
    2      -60.497032    -58.302472   1.000000   1.000000
    3      -60.490499    -58.295454   1.000000   1.000000
    4      -60.490441    -58.295327   1.000000   1.000000
    5      -60.470206    -58.290008   1.000000   1.000000
    6      -60.470174    -58.289963   1.000000   1.000000
    7      -60.466961    -58.286285   1.000000   1.000000
    8      -60.466946    -58.286283   1.000000   1.000000
    9      -60.446128    -58.273612   1.000000   1.000000
   10      -60.445923    -58.273419   1.000000   1.000000
   11      -60.445714    -58.272720   1.000000   1.000000
   12      -60.445518    -58.272473   1.000000   1.000000
   13      -15.352569    -15.297879   1.000000   1.000000
   14      -15.023790    -14.967687   1.000000   1.000000
   15      -14.371792    -14.290748   1.000000   1.000000
   16      -14.213562    -14.147722   1.000000   1.000000
   17      -14.209110    -14.099679   1.000000   1.000000
   18      -14.132431    -14.058144   1.000000   1.000000
   19      -13.994349    -13.852504   1.000000   1.000000
   20      -13.907620    -13.781257   1.000000   1.000000
   21      -13.828640    -13.715551   1.000000   1.000000
   22      -13.789826    -13.668988   1.000000   1.000000
   23      -13.731167    -13.594057   1.000000   1.000000
   24      -13.645613    -13.581757   1.000000   1.000000
   25      -13.622585    -13.494215   1.000000   1.000000
   26      -13.507032    -13.425380   1.000000   1.000000
   27      -13.455386    -13.335357   1.000000   1.000000
   28      -13.371694    -13.300755   1.000000   1.000000