 vasp.5.4.4.18Apr17-6-g9f103f2a35 (build Jan 25 2019 22:30:10) complex          
  
 executed on             LinuxIFC date 2021.01.27  22:41:40
 running on   32 total cores
 distrk:  each k-point on   32 cores,    1 groups
 distr:  one band on NCORES_PER_BAND=   4 cores,    8 groups


--------------------------------------------------------------------------------------------------------


 INCAR:
 POTCAR:    PAW_PBE Ni_pv 06Sep2000               
 POTCAR:    PAW_PBE O 08Apr2002                   
 POTCAR:    PAW_PBE W 08Apr2002                   
 POTCAR:    PAW_PBE Ni_pv 06Sep2000               
   VRHFIN =Ni:                                                                  
   LEXCH  = PE                                                                  
   EATOM  =  3501.1230 eV,  257.3253 Ry                                         
                                                                                
   TITEL  = PAW_PBE Ni_pv 06Sep2000                                             
   LULTRA =        F    use ultrasoft PP ?                                      
   IUNSCR =        1    unscreen: 0-lin 1-nonlin 2-no                           
   RPACOR =    1.500    partial core radius                                     
   POMASS =   58.690; ZVAL   =   16.000    mass and valenz                      
   RCORE  =    2.000    outmost cutoff radius                                   
   RWIGS  =    2.000; RWIGS  =    1.058    wigner-seitz radius (au A)           
   ENMAX  =  367.986; ENMIN  =  275.989 eV                                      
   RCLOC  =    1.301    cutoff for local pot                                    
   LCOR   =        T    correct aug charges                                     
   LPAW   =        T    paw PP                                                  
   EAUG   =  703.443                                                            
   DEXC   =    0.000                                                            
   RMAX   =    2.041    core radius for proj-oper                               
   RAUG   =    1.300    factor for augmentation sphere                          
   RDEP   =    2.103    radius for radial grids                                 
   RDEPT  =    1.618    core radius for aug-charge                              
                                                                                
   Atomic configuration                                                         
    8 entries                                                                   
     n  l   j            E        occ.                                          
     1  0  0.50     -8206.4253   2.0000                                         
     2  0  0.50      -976.1748   2.0000                                         
     2  1  1.50      -839.0571   6.0000                                         
     3  0  0.50      -105.9991   2.0000                                         
     3  1  1.50       -66.4603   6.0000                                         
     3  2  2.50        -4.6458   9.0000                                         
     4  0  0.50        -4.4926   1.0000                                         
     4  3  2.50        -1.3606   0.0000                                         
   Description                                                                  
     l       E           TYP  RCUT    TYP  RCUT                                 
     1    -66.4602962     23  1.700                                             
     1     -1.3605826     23  1.700                                             
     2     -4.6457867     23  2.000                                             
     2     -6.0063693     23  2.000                                             
     0     -4.4925576     23  1.900                                             
     0     16.3626226     23  1.900                                             
  local pseudopotential read in
  partial core-charges read in
  partial kinetic energy density read in
  atomic valenz-charges read in
  non local Contribution for L=           1  read in
    real space projection operators read in
  non local Contribution for L=           1  read in
    real space projection operators read in
  non local Contribution for L=           2  read in
    real space projection operators read in
  non local Contribution for L=           2  read in
    real space projection operators read in
  non local Contribution for L=           0  read in
    real space projection operators read in
  non local Contribution for L=           0  read in
    real space projection operators read in
    PAW grid and wavefunctions read in
 
   number of l-projection  operators is LMAX  =           6
   number of lm-projection operators is LMMAX =          18
 
 POTCAR:    PAW_PBE O 08Apr2002                   
   VRHFIN =O: s2p4                                                              
   LEXCH  = PE                                                                  
   EATOM  =   432.3788 eV,   31.7789 Ry                                         
                                                                                
   TITEL  = PAW_PBE O 08Apr2002                                                 
   LULTRA =        F    use ultrasoft PP ?                                      
   IUNSCR =        1    unscreen: 0-lin 1-nonlin 2-no                           
   RPACOR =    1.200    partial core radius                                     
   POMASS =   16.000; ZVAL   =    6.000    mass and valenz                      
   RCORE  =    1.520    outmost cutoff radius                                   
   RWIGS  =    1.550; RWIGS  =    0.820    wigner-seitz radius (au A)           
   ENMAX  =  400.000; ENMIN  =  300.000 eV                                      
   ICORE  =        2    local potential                                         
   LCOR   =        T    correct aug charges                                     
   LPAW   =        T    paw PP                                                  
   EAUG   =  605.392                                                            
   DEXC   =    0.000                                                            
   RMAX   =    1.553    core radius for proj-oper                               
   RAUG   =    1.300    factor for augmentation sphere                          
   RDEP   =    1.550    radius for radial grids                                 
   RDEPT  =    1.329    core radius for aug-charge                              
                                                                                
   Atomic configuration                                                         
    4 entries                                                                   
     n  l   j            E        occ.                                          
     1  0  0.50      -514.6923   2.0000                                         
     2  0  0.50       -23.9615   2.0000                                         
     2  1  0.50        -9.0305   4.0000                                         
     3  2  1.50        -9.5241   0.0000                                         
   Description                                                                  
     l       E           TYP  RCUT    TYP  RCUT                                 
     0    -23.9615318     23  1.200                                             
     0     -9.5240782     23  1.200                                             
     1     -9.0304911     23  1.520                                             
     1      8.1634956     23  1.520                                             
     2     -9.5240782      7  1.500                                             
  local pseudopotential read in
  partial core-charges read in
  partial kinetic energy density read in
  kinetic energy density of atom read in
  atomic valenz-charges read in
  non local Contribution for L=           0  read in
    real space projection operators read in
  non local Contribution for L=           0  read in
    real space projection operators read in
  non local Contribution for L=           1  read in
    real space projection operators read in
  non local Contribution for L=           1  read in
    real space projection operators read in
    PAW grid and wavefunctions read in
 
   number of l-projection  operators is LMAX  =           4
   number of lm-projection operators is LMMAX =           8
 
 POTCAR:    PAW_PBE W 08Apr2002                   
   VRHFIN =W : 6s5d                                                             
   LEXCH  = PE                                                                  
   EATOM  =   204.6103 eV,   15.0384 Ry                                         
                                                                                
   TITEL  = PAW_PBE W 08Apr2002                                                 
   LULTRA =        F    use ultrasoft PP ?                                      
   IUNSCR =        1    unscreen: 0-lin 1-nonlin 2-no                           
   RPACOR =    2.330    partial core radius                                     
   POMASS =  183.850; ZVAL   =    6.000    mass and valenz                      
   RCORE  =    2.750    outmost cutoff radius                                   
   RWIGS  =    2.750; RWIGS  =    1.455    wigner-seitz radius (au A)           
   ENMAX  =  223.057; ENMIN  =  167.293 eV                                      
   RCLOC  =    2.147    cutoff for local pot                                    
   LCOR   =        T    correct aug charges                                     
   LPAW   =        T    paw PP                                                  
   EAUG   =  373.438                                                            
   DEXC   =    0.000                                                            
   RMAX   =    2.801    core radius for proj-oper                               
   RAUG   =    1.300    factor for augmentation sphere                          
   RDEP   =    2.886    radius for radial grids                                 
   RDEPT  =    2.230    core radius for aug-charge                              
                                                                                
   Atomic configuration                                                         
   16 entries                                                                   
     n  l   j            E        occ.                                          
     1  0  0.50    -69465.5836   2.0000                                         
     2  0  0.50    -11986.2642   2.0000                                         
     2  1  1.50    -10479.8616   6.0000                                         
     3  0  0.50     -2759.0758   2.0000                                         
     3  1  1.50     -2313.1857   6.0000                                         
     3  2  2.50     -1801.1185  10.0000                                         
     4  0  0.50      -567.6791   2.0000                                         
     4  1  1.50      -421.4694   6.0000                                         
     4  2  2.50      -236.3473  10.0000                                         
     4  3  3.50       -31.2666  14.0000                                         
     5  0  0.50       -77.1085   2.0000                                         
     5  1  1.50       -41.3856   6.0000                                         
     5  2  2.50        -3.3185   5.0000                                         
     6  0  0.50        -5.1438   1.0000                                         
     6  1  0.50        -3.8096   0.0000                                         
     5  3  2.50        -1.3606   0.0000                                         
   Description                                                                  
     l       E           TYP  RCUT    TYP  RCUT                                 
     2     -3.3185288     23  2.500                                             
     2     -1.5965414     23  2.500                                             
     0     -5.1438054     23  2.500                                             
     0      4.9117504     23  2.500                                             
     1      2.7211652     23  2.750                                             
     1     27.2116520     23  2.750                                             
  local pseudopotential read in
  partial core-charges read in
  partial kinetic energy density read in
  atomic valenz-charges read in
  non local Contribution for L=           2  read in
    real space projection operators read in
  non local Contribution for L=           2  read in
    real space projection operators read in
  non local Contribution for L=           0  read in
    real space projection operators read in
  non local Contribution for L=           0  read in
    real space projection operators read in
  non local Contribution for L=           1  read in
    real space projection operators read in
  non local Contribution for L=           1  read in
    real space projection operators read in
    PAW grid and wavefunctions read in
 
   number of l-projection  operators is LMAX  =           6
   number of lm-projection operators is LMMAX =          18
 
 Optimization of the real space projectors (new method)

 maximal supplied QI-value         = 18.90
 optimisation between [QCUT,QGAM] = [ 11.34, 22.87] = [ 36.00,146.41] Ry 
 Optimized for a Real-space Cutoff    1.35 Angstroem

   l    n(q)    QCUT    max X(q) W(low)/X(q) W(high)/X(q)  e(spline) 
   1      9    11.338     2.836    0.21E-04    0.44E-04    0.96E-07
   1      9    11.338     4.023    0.81E-04    0.11E-03    0.22E-06
   2      8    11.338    73.368    0.36E-03    0.40E-03    0.33E-06
   2      8    11.338    69.010    0.37E-03    0.41E-03    0.34E-06
   0      9    11.338    54.797    0.66E-04    0.74E-04    0.73E-07
   0      9    11.338    24.266    0.52E-04    0.65E-04    0.65E-07
 Optimization of the real space projectors (new method)

 maximal supplied QI-value         = 24.76
 optimisation between [QCUT,QGAM] = [ 11.39, 22.77] = [ 36.31,145.25] Ry 
 Optimized for a Real-space Cutoff    1.00 Angstroem

   l    n(q)    QCUT    max X(q) W(low)/X(q) W(high)/X(q)  e(spline) 
   0      7    11.387    20.381    0.39E-03    0.13E-02    0.15E-06
   0      7    11.387    15.268    0.42E-03    0.14E-02    0.17E-06
   1      6    11.387     5.964    0.41E-03    0.11E-02    0.17E-06
   1      6    11.387     5.382    0.39E-03    0.87E-03    0.15E-06
 Optimization of the real space projectors (new method)

 maximal supplied QI-value         = 13.61
 optimisation between [QCUT,QGAM] = [ 11.43, 22.86] = [ 36.58,146.31] Ry 
 Optimized for a Real-space Cutoff    1.56 Angstroem

   l    n(q)    QCUT    max X(q) W(low)/X(q) W(high)/X(q)  e(spline) 
   2     10    11.429   130.855    0.22E-03    0.64E-03    0.11E-05
   2     10    11.429   114.007    0.22E-03    0.64E-03    0.11E-05
   0     11    11.429    84.709    0.39E-04    0.67E-04    0.23E-06
   0     11    11.429    49.163    0.35E-04    0.62E-04    0.21E-06
   1     10    11.429    15.765    0.84E-04    0.15E-03    0.24E-06
   1     10    11.429    10.638    0.58E-04    0.12E-03    0.19E-06
  PAW_PBE Ni_pv 06Sep2000               :
 energy of atom  1       EATOM=-3501.1230
 kinetic energy error for atom=    0.0690 (will be added to EATOM!!)
  PAW_PBE O 08Apr2002                   :
 energy of atom  2       EATOM= -432.3788
 kinetic energy error for atom=    0.0224 (will be added to EATOM!!)
  PAW_PBE W 08Apr2002                   :
 energy of atom  3       EATOM= -204.6103
 kinetic energy error for atom=    0.0017 (will be added to EATOM!!)
 
 
 POSCAR: Ni O4 W                                 
  positions in direct lattice
  No initial velocities read in
 exchange correlation table for  LEXCH =        8
   RHO(1)=    0.500       N(1)  =     2000
   RHO(2)=  100.500       N(2)  =     4000
 


--------------------------------------------------------------------------------------------------------


 ion  position               nearest neighbor table
   1  0.250  0.650  0.250-  15 1.99  19 1.99   7 2.03  11 2.03  17 2.03  13 2.03
   2  0.750  0.650  0.250-  16 1.99  20 1.99   8 2.03  12 2.03  18 2.03  14 2.03
   3  0.250  0.350  0.750-  17 1.99  13 1.99   9 2.03   5 2.03  15 2.03  19 2.03
   4  0.750  0.350  0.750-  18 1.99  14 1.99  10 2.03   6 2.03  16 2.03  20 2.03
   5  0.113  0.113  0.926-  21 1.94   3 2.03  23 2.10
   6  0.613  0.113  0.926-  22 1.94   4 2.03  24 2.10
   7  0.387  0.887  0.074-  24 1.94   1 2.03  22 2.10
   8  0.887  0.887  0.074-  23 1.94   2 2.03  21 2.10
   9  0.387  0.113  0.574-  22 1.94   3 2.03  24 2.10
  10  0.887  0.113  0.574-  21 1.94   4 2.03  23 2.10
  11  0.113  0.887  0.426-  23 1.94   1 2.03  21 2.10
  12  0.613  0.887  0.426-  24 1.94   2 2.03  22 2.10
  13  0.133  0.378  0.410-  21 1.85   3 1.99   1 2.03
  14  0.633  0.378  0.410-  22 1.85   4 1.99   2 2.03
  15  0.367  0.622  0.590-  24 1.85   1 1.99   3 2.03
  16  0.867  0.622  0.590-  23 1.85   2 1.99   4 2.03
  17  0.367  0.378  0.090-  22 1.85   3 1.99   1 2.03
  18  0.867  0.378  0.090-  21 1.85   4 1.99   2 2.03
  19  0.133  0.622  0.910-  23 1.85   1 1.99   3 2.03
  20  0.633  0.622  0.910-  24 1.85   2 1.99   4 2.03
  21  0.000  0.173  0.250-  13 1.85  18 1.85   5 1.94  10 1.94  11 2.10   8 2.10  23 3.15  23 3.15

  22  0.500  0.173  0.250-  14 1.85  17 1.85   6 1.94   9 1.94  12 2.10   7 2.10  24 3.15  24 3.15

  23  0.000  0.827  0.750-  19 1.85  16 1.85  11 1.94   8 1.94   5 2.10  10 2.10  21 3.15  21 3.15

  24  0.500  0.827  0.750-  20 1.85  15 1.85  12 1.94   7 1.94   6 2.10   9 2.10  22 3.15  22 3.15

 

IMPORTANT INFORMATION: All symmetrisations will be switched off!
NOSYMM: (Re-)initialisation of all symmetry stuff for point group C_1.

 
 
 KPOINTS: Automatic mesh                          

Automatic generation of k-mesh.
Space group operators:
 irot       det(A)        alpha          n_x          n_y          n_z        tau_x        tau_y        tau_z
    1     1.000000     0.000000     1.000000     0.000000     0.000000     0.000000     0.000000     0.000000
 
 Subroutine IBZKPT returns following result:
 ===========================================
 
 Found    132 irreducible k-points:
 
 Following reciprocal coordinates:
            Coordinates               Weight
  0.000000  0.000000  0.000000      1.000000
  0.250000  0.000000  0.000000      2.000000
  0.500000  0.000000  0.000000      1.000000
  0.000000  0.125000  0.000000      2.000000
  0.250000  0.125000  0.000000      2.000000
  0.500000  0.125000  0.000000      2.000000
 -0.250000  0.125000  0.000000      2.000000
  0.000000  0.250000  0.000000      2.000000
  0.250000  0.250000  0.000000      2.000000
  0.500000  0.250000  0.000000      2.000000
 -0.250000  0.250000  0.000000      2.000000
  0.000000  0.375000  0.000000      2.000000
  0.250000  0.375000  0.000000      2.000000
  0.500000  0.375000  0.000000      2.000000
 -0.250000  0.375000  0.000000      2.000000
  0.000000  0.500000  0.000000      1.000000
  0.250000  0.500000  0.000000      2.000000
  0.500000  0.500000  0.000000      1.000000
  0.000000  0.000000  0.125000      2.000000
  0.250000  0.000000  0.125000      2.000000
  0.500000  0.000000  0.125000      2.000000
 -0.250000  0.000000  0.125000      2.000000
  0.000000  0.125000  0.125000      2.000000
  0.250000  0.125000  0.125000      2.000000
  0.500000  0.125000  0.125000      2.000000
 -0.250000  0.125000  0.125000      2.000000
  0.000000  0.250000  0.125000      2.000000
  0.250000  0.250000  0.125000      2.000000
  0.500000  0.250000  0.125000      2.000000
 -0.250000  0.250000  0.125000      2.000000
  0.000000  0.375000  0.125000      2.000000
  0.250000  0.375000  0.125000      2.000000
  0.500000  0.375000  0.125000      2.000000
 -0.250000  0.375000  0.125000      2.000000
  0.000000  0.500000  0.125000      2.000000
  0.250000  0.500000  0.125000      2.000000
  0.500000  0.500000  0.125000      2.000000
 -0.250000  0.500000  0.125000      2.000000
  0.000000 -0.375000  0.125000      2.000000
  0.250000 -0.375000  0.125000      2.000000
  0.500000 -0.375000  0.125000      2.000000
 -0.250000 -0.375000  0.125000      2.000000
  0.000000 -0.250000  0.125000      2.000000
  0.250000 -0.250000  0.125000      2.000000
  0.500000 -0.250000  0.125000      2.000000
 -0.250000 -0.250000  0.125000      2.000000
  0.000000 -0.125000  0.125000      2.000000
  0.250000 -0.125000  0.125000      2.000000
  0.500000 -0.125000  0.125000      2.000000
 -0.250000 -0.125000  0.125000      2.000000
  0.000000  0.000000  0.250000      2.000000
  0.250000  0.000000  0.250000      2.000000
  0.500000  0.000000  0.250000      2.000000
 -0.250000  0.000000  0.250000      2.000000
  0.000000  0.125000  0.250000      2.000000
  0.250000  0.125000  0.250000      2.000000
  0.500000  0.125000  0.250000      2.000000
 -0.250000  0.125000  0.250000      2.000000
  0.000000  0.250000  0.250000      2.000000
  0.250000  0.250000  0.250000      2.000000
  0.500000  0.250000  0.250000      2.000000
 -0.250000  0.250000  0.250000      2.000000
  0.000000  0.375000  0.250000      2.000000
  0.250000  0.375000  0.250000      2.000000
  0.500000  0.375000  0.250000      2.000000
 -0.250000  0.375000  0.250000      2.000000
  0.000000  0.500000  0.250000      2.000000
  0.250000  0.500000  0.250000      2.000000
  0.500000  0.500000  0.250000      2.000000
 -0.250000  0.500000  0.250000      2.000000
  0.000000 -0.375000  0.250000      2.000000
  0.250000 -0.375000  0.250000      2.000000
  0.500000 -0.375000  0.250000      2.000000
 -0.250000 -0.375000  0.250000      2.000000
  0.000000 -0.250000  0.250000      2.000000
  0.250000 -0.250000  0.250000      2.000000
  0.500000 -0.250000  0.250000      2.000000
 -0.250000 -0.250000  0.250000      2.000000
  0.000000 -0.125000  0.250000      2.000000
  0.250000 -0.125000  0.250000      2.000000
  0.500000 -0.125000  0.250000      2.000000
 -0.250000 -0.125000  0.250000      2.000000
  0.000000  0.000000  0.375000      2.000000
  0.250000  0.000000  0.375000      2.000000
  0.500000  0.000000  0.375000      2.000000
 -0.250000  0.000000  0.375000      2.000000
  0.000000  0.125000  0.375000      2.000000
  0.250000  0.125000  0.375000      2.000000
  0.500000  0.125000  0.375000      2.000000
 -0.250000  0.125000  0.375000      2.000000
  0.000000  0.250000  0.375000      2.000000
  0.250000  0.250000  0.375000      2.000000
  0.500000  0.250000  0.375000      2.000000
 -0.250000  0.250000  0.375000      2.000000
  0.000000  0.375000  0.375000      2.000000
  0.250000  0.375000  0.375000      2.000000
  0.500000  0.375000  0.375000      2.000000
 -0.250000  0.375000  0.375000      2.000000
  0.000000  0.500000  0.375000      2.000000
  0.250000  0.500000  0.375000      2.000000
  0.500000  0.500000  0.375000      2.000000
 -0.250000  0.500000  0.375000      2.000000
  0.000000 -0.375000  0.375000      2.000000
  0.250000 -0.375000  0.375000      2.000000
  0.500000 -0.375000  0.375000      2.000000
 -0.250000 -0.375000  0.375000      2.000000
  0.000000 -0.250000  0.375000      2.000000
  0.250000 -0.250000  0.375000      2.000000
  0.500000 -0.250000  0.375000      2.000000
 -0.250000 -0.250000  0.375000      2.000000
  0.000000 -0.125000  0.375000      2.000000
  0.250000 -0.125000  0.375000      2.000000
  0.500000 -0.125000  0.375000      2.000000
 -0.250000 -0.125000  0.375000      2.000000
  0.000000  0.000000  0.500000      1.000000
  0.250000  0.000000  0.500000      2.000000
  0.500000  0.000000  0.500000      1.000000
  0.000000  0.125000  0.500000      2.000000
  0.250000  0.125000  0.500000      2.000000
  0.500000  0.125000  0.500000      2.000000
 -0.250000  0.125000  0.500000      2.000000
  0.000000  0.250000  0.500000      2.000000
  0.250000  0.250000  0.500000      2.000000
  0.500000  0.250000  0.500000      2.000000
 -0.250000  0.250000  0.500000      2.000000
  0.000000  0.375000  0.500000      2.000000
  0.250000  0.375000  0.500000      2.000000
  0.500000  0.375000  0.500000      2.000000
 -0.250000  0.375000  0.500000      2.000000
  0.000000  0.500000  0.500000      1.000000
  0.250000  0.500000  0.500000      2.000000
  0.500000  0.500000  0.500000      1.000000
 
 Following cartesian coordinates:
            Coordinates               Weight
  0.000000  0.000000  0.000000      1.000000
  0.027480  0.000000  0.000321      2.000000
  0.054961  0.000000  0.000641      1.000000
  0.000000  0.022182  0.000000      2.000000
  0.027480  0.022182  0.000321      2.000000
  0.054961  0.022182  0.000641      2.000000
 -0.027480  0.022182 -0.000321      2.000000
  0.000000  0.044364  0.000000      2.000000
  0.027480  0.044364  0.000321      2.000000
  0.054961  0.044364  0.000641      2.000000
 -0.027480  0.044364 -0.000321      2.000000
  0.000000  0.066545  0.000000      2.000000
  0.027480  0.066545  0.000321      2.000000
  0.054961  0.066545  0.000641      2.000000
 -0.027480  0.066545 -0.000321      2.000000
  0.000000  0.088727  0.000000      1.000000
  0.027480  0.088727  0.000321      2.000000
  0.054961  0.088727  0.000641      1.000000
  0.000000  0.000000  0.025306      2.000000
  0.027480  0.000000  0.025627      2.000000
  0.054961  0.000000  0.025947      2.000000
 -0.027480  0.000000  0.024986      2.000000
  0.000000  0.022182  0.025306      2.000000
  0.027480  0.022182  0.025627      2.000000
  0.054961  0.022182  0.025947      2.000000
 -0.027480  0.022182  0.024986      2.000000
  0.000000  0.044364  0.025306      2.000000
  0.027480  0.044364  0.025627      2.000000
  0.054961  0.044364  0.025947      2.000000
 -0.027480  0.044364  0.024986      2.000000
  0.000000  0.066545  0.025306      2.000000
  0.027480  0.066545  0.025627      2.000000
  0.054961  0.066545  0.025947      2.000000
 -0.027480  0.066545  0.024986      2.000000
  0.000000  0.088727  0.025306      2.000000
  0.027480  0.088727  0.025627      2.000000
  0.054961  0.088727  0.025947      2.000000
 -0.027480  0.088727  0.024986      2.000000
  0.000000 -0.066545  0.025306      2.000000
  0.027480 -0.066545  0.025627      2.000000
  0.054961 -0.066545  0.025947      2.000000
 -0.027480 -0.066545  0.024986      2.000000
  0.000000 -0.044364  0.025306      2.000000
  0.027480 -0.044364  0.025627      2.000000
  0.054961 -0.044364  0.025947      2.000000
 -0.027480 -0.044364  0.024986      2.000000
  0.000000 -0.022182  0.025306      2.000000
  0.027480 -0.022182  0.025627      2.000000
  0.054961 -0.022182  0.025947      2.000000
 -0.027480 -0.022182  0.024986      2.000000
  0.000000  0.000000  0.050612      2.000000
  0.027480  0.000000  0.050933      2.000000
  0.054961  0.000000  0.051253      2.000000
 -0.027480  0.000000  0.050292      2.000000
  0.000000  0.022182  0.050612      2.000000
  0.027480  0.022182  0.050933      2.000000
  0.054961  0.022182  0.051253      2.000000
 -0.027480  0.022182  0.050292      2.000000
  0.000000  0.044364  0.050612      2.000000
  0.027480  0.044364  0.050933      2.000000
  0.054961  0.044364  0.051253      2.000000
 -0.027480  0.044364  0.050292      2.000000
  0.000000  0.066545  0.050612      2.000000
  0.027480  0.066545  0.050933      2.000000
  0.054961  0.066545  0.051253      2.000000
 -0.027480  0.066545  0.050292      2.000000
  0.000000  0.088727  0.050612      2.000000
  0.027480  0.088727  0.050933      2.000000
  0.054961  0.088727  0.051253      2.000000
 -0.027480  0.088727  0.050292      2.000000
  0.000000 -0.066545  0.050612      2.000000
  0.027480 -0.066545  0.050933      2.000000
  0.054961 -0.066545  0.051253      2.000000
 -0.027480 -0.066545  0.050292      2.000000
  0.000000 -0.044364  0.050612      2.000000
  0.027480 -0.044364  0.050933      2.000000
  0.054961 -0.044364  0.051253      2.000000
 -0.027480 -0.044364  0.050292      2.000000
  0.000000 -0.022182  0.050612      2.000000
  0.027480 -0.022182  0.050933      2.000000
  0.054961 -0.022182  0.051253      2.000000
 -0.027480 -0.022182  0.050292      2.000000
  0.000000  0.000000  0.075918      2.000000
  0.027480  0.000000  0.076239      2.000000
  0.054961  0.000000  0.076559      2.000000
 -0.027480  0.000000  0.075598      2.000000
  0.000000  0.022182  0.075918      2.000000
  0.027480  0.022182  0.076239      2.000000
  0.054961  0.022182  0.076559      2.000000
 -0.027480  0.022182  0.075598      2.000000
  0.000000  0.044364  0.075918      2.000000
  0.027480  0.044364  0.076239      2.000000
  0.054961  0.044364  0.076559      2.000000
 -0.027480  0.044364  0.075598      2.000000
  0.000000  0.066545  0.075918      2.000000
  0.027480  0.066545  0.076239      2.000000
  0.054961  0.066545  0.076559      2.000000
 -0.027480  0.066545  0.075598      2.000000
  0.000000  0.088727  0.075918      2.000000
  0.027480  0.088727  0.076239      2.000000
  0.054961  0.088727  0.076559      2.000000
 -0.027480  0.088727  0.075598      2.000000
  0.000000 -0.066545  0.075918      2.000000
  0.027480 -0.066545  0.076239      2.000000
  0.054961 -0.066545  0.076559      2.000000
 -0.027480 -0.066545  0.075598      2.000000
  0.000000 -0.044364  0.075918      2.000000
  0.027480 -0.044364  0.076239      2.000000
  0.054961 -0.044364  0.076559      2.000000
 -0.027480 -0.044364  0.075598      2.000000
  0.000000 -0.022182  0.075918      2.000000
  0.027480 -0.022182  0.076239      2.000000
  0.054961 -0.022182  0.076559      2.000000
 -0.027480 -0.022182  0.075598      2.000000
  0.000000  0.000000  0.101224      1.000000
  0.027480  0.000000  0.101545      2.000000
  0.054961  0.000000  0.101865      1.000000
  0.000000  0.022182  0.101224      2.000000
  0.027480  0.022182  0.101545      2.000000
  0.054961  0.022182  0.101865      2.000000
 -0.027480  0.022182  0.100904      2.000000
  0.000000  0.044364  0.101224      2.000000
  0.027480  0.044364  0.101545      2.000000
  0.054961  0.044364  0.101865      2.000000
 -0.027480  0.044364  0.100904      2.000000
  0.000000  0.066545  0.101224      2.000000
  0.027480  0.066545  0.101545      2.000000
  0.054961  0.066545  0.101865      2.000000
 -0.027480  0.066545  0.100904      2.000000
  0.000000  0.088727  0.101224      1.000000
  0.027480  0.088727  0.101545      2.000000
  0.054961  0.088727  0.101865      1.000000
 
 TETIRR: Found    768 inequivalent tetrahedra from     1536


--------------------------------------------------------------------------------------------------------




 Dimension of arrays:
   k-points           NKPTS =    132   k-points in BZ     NKDIM =    132   number of bands    NBANDS=    120
   number of dos      NEDOS =   2001   number of ions     NIONS =     24
   non local maximal  LDIM  =      6   non local SUM 2l+1 LMDIM =     18
   total plane-waves  NPLWV =  44800
   max r-space proj   IRMAX =   2886   max aug-charges    IRDMAX=  10297
   dimension x,y,z NGX =    50 NGY =   32 NGZ =   28
   dimension x,y,z NGXF=   100 NGYF=   64 NGZF=   56
   support grid    NGXF=   100 NGYF=   64 NGZF=   56
   ions per type =               4  16   4
   NGX,Y,Z   is equivalent  to a cutoff of   9.14,  9.44,  9.42 a.u.
   NGXF,Y,Z  is equivalent  to a cutoff of  18.27, 18.88, 18.85 a.u.

 SYSTEM =  NiWO4                                   
 POSCAR =  Ni O4 W                                 

 Startparameter for this run:
   NWRITE =      2    write-flag & timer
   PREC   = normal    normal or accurate (medium, high low for compatibility)
   ISTART =      0    job   : 0-new  1-cont  2-samecut
   ICHARG =      2    charge: 1-file 2-atom 10-const
   ISPIN  =      2    spin polarized calculation?
   LNONCOLLINEAR =      F non collinear calculations
   LSORBIT =      F    spin-orbit coupling
   INIWAV =      1    electr: 0-lowe 1-rand  2-diag
   LASPH  =      F    aspherical Exc in radial PAW
   METAGGA=      F    non-selfconsistent MetaGGA calc.

 Electronic Relaxation 1
   ENCUT  =  500.0 eV  36.75 Ry    6.06 a.u.  16.59 10.27  9.01*2*pi/ulx,y,z
   ENINI  =  500.0     initial cutoff
   ENAUG  =  703.4 eV  augmentation charge cutoff
   NELM   =    400;   NELMIN=  2; NELMDL= -5     # of ELM steps 
   EDIFF  = 0.1E-04   stopping-criterion for ELM
   LREAL  =      T    real-space projection
   NLSPLINE    = F    spline interpolate recip. space projectors
   LCOMPAT=      F    compatible to vasp.4.4
   GGA_COMPAT  = T    GGA compatible to vasp.4.4-vasp.4.6
   LMAXPAW     = -100 max onsite density
   LMAXMIX     =    4 max onsite mixed and CHGCAR
   VOSKOWN=      0    Vosko Wilk Nusair interpolation
   ROPT   =   -0.00050  -0.00050  -0.00050
 Ionic relaxation
   EDIFFG = 0.1E-03   stopping-criterion for IOM
   NSW    =      0    number of steps for IOM
   NBLOCK =      1;   KBLOCK =      1    inner block; outer block 
   IBRION =     -1    ionic relax: 0-MD 1-quasi-New 2-CG
   NFREE  =      0    steps in history (QN), initial steepest desc. (CG)
   ISIF   =      2    stress and relaxation
   IWAVPR =     10    prediction:  0-non 1-charg 2-wave 3-comb
   ISYM   =      0    0-nonsym 1-usesym 2-fastsym
   LCORR  =      T    Harris-Foulkes like correction to forces

   POTIM  = 0.5000    time-step for ionic-motion
   TEIN   =    0.0    initial temperature
   TEBEG  =    0.0;   TEEND  =   0.0 temperature during run
   SMASS  =  -3.00    Nose mass-parameter (am)
   estimated Nose-frequenzy (Omega)   =  0.10E-29 period in steps =****** mass=  -0.189E-26a.u.
   SCALEE = 1.0000    scale energy and forces
   NPACO  =    256;   APACO  = 16.0  distance and # of slots for P.C.
   PSTRESS=    0.0 pullay stress

  Mass of Ions in am
   POMASS =  58.69 16.00183.85
  Ionic Valenz
   ZVAL   =  16.00  6.00  6.00
  Atomic Wigner-Seitz radii
   RWIGS  =  -1.00 -1.00 -1.00
  virtual crystal weights 
   VCA    =   1.00  1.00  1.00
   NELECT =     184.0000    total number of electrons
   NUPDOWN=      -1.0000    fix difference up-down

 DOS related values:
   EMIN   =  10.00;   EMAX   =-10.00  energy-range for DOS
   EFERMI =   0.00
   ISMEAR =    -5;   SIGMA  =   0.10  broadening in eV -4-tet -1-fermi 0-gaus

 Electronic relaxation 2 (details)
   IALGO  =     38    algorithm
   LDIAG  =      T    sub-space diagonalisation (order eigenvalues)
   LSUBROT=      F    optimize rotation matrix (better conditioning)
   TURBO    =      0    0=normal 1=particle mesh
   IRESTART =      0    0=no restart 2=restart with 2 vectors
   NREBOOT  =      0    no. of reboots
   NMIN     =      0    reboot dimension
   EREF     =   0.00    reference energy to select bands
   IMIX   =      4    mixing-type and parameters
     AMIX     =   0.40;   BMIX     =  1.00
     AMIX_MAG =   1.60;   BMIX_MAG =  1.00
     AMIN     =   0.10
     WC   =   100.;   INIMIX=   1;  MIXPRE=   1;  MAXMIX= -45

 Intra band minimization:
   WEIMIN = 0.0000     energy-eigenvalue tresh-hold
   EBREAK =  0.21E-07  absolut break condition
   DEPER  =   0.30     relativ break condition  

   TIME   =   0.40     timestep for ELM

  volume/ion in A,a.u.               =      10.55        71.20
  Fermi-wavevector in a.u.,A,eV,Ry     =   1.471779  2.781259 29.472034  2.166133
  Thomas-Fermi vector in A             =   2.586874
 
 Write flags
   LWAVE        =      T    write WAVECAR
   LDOWNSAMPLE  =      F    k-point downsampling of WAVECAR
   LCHARG       =      T    write CHGCAR
   LVTOT        =      F    write LOCPOT, total local potential
   LVHAR        =      F    write LOCPOT, Hartree potential only
   LELF         =      F    write electronic localiz. function (ELF)
   LORBIT       =     11    0 simple, 1 ext, 2 COOP (PROOUT), +10 PAW based schemes


 Dipole corrections
   LMONO  =      F    monopole corrections only (constant potential shift)
   LDIPOL =      F    correct potential (dipole corrections)
   IDIPOL =      0    1-x, 2-y, 3-z, 4-all directions 
   EPSILON=  1.0000000 bulk dielectric constant

 LDA+U is selected, type is set to LDAUTYPE =  2
   angular momentum for each species LDAUL =     2   -1   -1
   U (eV)           for each species LDAUU =   0.0  0.0  0.0
   J (eV)           for each species LDAUJ =   0.0  0.0  0.0
 Exchange correlation treatment:
   GGA     =    PE    GGA type
   LEXCH   =     8    internal setting for exchange type
   VOSKOWN=      0    Vosko Wilk Nusair interpolation
   LHFCALC =     F    Hartree Fock is set to
   LHFONE  =     F    Hartree Fock one center treatment
   AEXX    =    0.0000 exact exchange contribution

 Linear response parameters
   LEPSILON=     F    determine dielectric tensor
   LRPA    =     F    only Hartree local field effects (RPA)
   LNABLA  =     F    use nabla operator in PAW spheres
   LVEL    =     F    velocity operator in full k-point grid
   LINTERFAST=   F  fast interpolation
   KINTER  =     0    interpolate to denser k-point grid
   CSHIFT  =0.1000    complex shift for real part using Kramers Kronig
   OMEGAMAX=  -1.0    maximum frequency
   DEG_THRESHOLD= 0.2000000E-02 threshold for treating states as degnerate
   RTIME   =   -0.100 relaxation time in fs
  (WPLASMAI=    0.000 imaginary part of plasma frequency in eV, 0.658/RTIME)
   DFIELD  = 0.0000000 0.0000000 0.0000000 field for delta impulse in time
 
 Orbital magnetization related:
   ORBITALMAG=     F  switch on orbital magnetization
   LCHIMAG   =     F  perturbation theory with respect to B field
   DQ        =  0.001000  dq finite difference perturbation B field
   LLRAUG    =     F  two centre corrections for induced B field



--------------------------------------------------------------------------------------------------------


 Static calculation
 charge density and potential will be updated during run
 spin polarized calculation
 Variant of blocked Davidson
 Davidson routine will perform the subspace rotation
 perform sub-space diagonalisation
    after iterative eigenvector-optimisation
 modified Broyden-mixing scheme, WC =      100.0
 initial mixing is a Kerker type mixing with AMIX =  0.4000 and BMIX =      1.0000
 Hartree-type preconditioning will be used
 using additional bands           28
 real space projection scheme for non local part
 use partial core corrections
 calculate Harris-corrections to forces 
   (improved forces if not selfconsistent)
 use gradient corrections 
 use of overlap-Matrix (Vanderbilt PP)
 Fermi weights with tetrahedron method with Bloechl corrections


--------------------------------------------------------------------------------------------------------


  energy-cutoff  :      500.00
  volume of cell :      253.23
      direct lattice vectors                 reciprocal lattice vectors
     9.097361565  0.000000000  0.000000000     0.109921980  0.000000000  0.001282083
     0.000000000  5.635251999  0.000000000     0.000000000  0.177454353  0.000000000
    -0.057612598  0.000000000  4.939531047     0.000000000  0.000000000  0.202448368

  length of vectors
     9.097361565  5.635251999  4.939867020     0.109929457  0.177454353  0.202448368


 
 k-points in units of 2pi/SCALE and weight: Automatic mesh                          
   0.00000000  0.00000000  0.00000000       0.004
   0.02748050  0.00000000  0.00032052       0.008
   0.05496099  0.00000000  0.00064104       0.004
   0.00000000  0.02218179  0.00000000       0.008
   0.02748050  0.02218179  0.00032052       0.008
   0.05496099  0.02218179  0.00064104       0.008
  -0.02748050  0.02218179 -0.00032052       0.008
   0.00000000  0.04436359  0.00000000       0.008
   0.02748050  0.04436359  0.00032052       0.008
   0.05496099  0.04436359  0.00064104       0.008
  -0.02748050  0.04436359 -0.00032052       0.008
   0.00000000  0.06654538  0.00000000       0.008
   0.02748050  0.06654538  0.00032052       0.008
   0.05496099  0.06654538  0.00064104       0.008
  -0.02748050  0.06654538 -0.00032052       0.008
   0.00000000  0.08872718  0.00000000       0.004
   0.02748050  0.08872718  0.00032052       0.008
   0.05496099  0.08872718  0.00064104       0.004
   0.00000000  0.00000000  0.02530605       0.008
   0.02748050  0.00000000  0.02562657       0.008
   0.05496099  0.00000000  0.02594709       0.008
  -0.02748050  0.00000000  0.02498553       0.008
   0.00000000  0.02218179  0.02530605       0.008
   0.02748050  0.02218179  0.02562657       0.008
   0.05496099  0.02218179  0.02594709       0.008
  -0.02748050  0.02218179  0.02498553       0.008
   0.00000000  0.04436359  0.02530605       0.008
   0.02748050  0.04436359  0.02562657       0.008
   0.05496099  0.04436359  0.02594709       0.008
  -0.02748050  0.04436359  0.02498553       0.008
   0.00000000  0.06654538  0.02530605       0.008
   0.02748050  0.06654538  0.02562657       0.008
   0.05496099  0.06654538  0.02594709       0.008
  -0.02748050  0.06654538  0.02498553       0.008
   0.00000000  0.08872718  0.02530605       0.008
   0.02748050  0.08872718  0.02562657       0.008
   0.05496099  0.08872718  0.02594709       0.008
  -0.02748050  0.08872718  0.02498553       0.008
   0.00000000 -0.06654538  0.02530605       0.008
   0.02748050 -0.06654538  0.02562657       0.008
   0.05496099 -0.06654538  0.02594709       0.008
  -0.02748050 -0.06654538  0.02498553       0.008
   0.00000000 -0.04436359  0.02530605       0.008
   0.02748050 -0.04436359  0.02562657       0.008
   0.05496099 -0.04436359  0.02594709       0.008
  -0.02748050 -0.04436359  0.02498553       0.008
   0.00000000 -0.02218179  0.02530605       0.008
   0.02748050 -0.02218179  0.02562657       0.008
   0.05496099 -0.02218179  0.02594709       0.008
  -0.02748050 -0.02218179  0.02498553       0.008
   0.00000000  0.00000000  0.05061209       0.008
   0.02748050  0.00000000  0.05093261       0.008
   0.05496099  0.00000000  0.05125313       0.008
  -0.02748050  0.00000000  0.05029157       0.008
   0.00000000  0.02218179  0.05061209       0.008
   0.02748050  0.02218179  0.05093261       0.008
   0.05496099  0.02218179  0.05125313       0.008
  -0.02748050  0.02218179  0.05029157       0.008
   0.00000000  0.04436359  0.05061209       0.008
   0.02748050  0.04436359  0.05093261       0.008
   0.05496099  0.04436359  0.05125313       0.008
  -0.02748050  0.04436359  0.05029157       0.008
   0.00000000  0.06654538  0.05061209       0.008
   0.02748050  0.06654538  0.05093261       0.008
   0.05496099  0.06654538  0.05125313       0.008
  -0.02748050  0.06654538  0.05029157       0.008
   0.00000000  0.08872718  0.05061209       0.008
   0.02748050  0.08872718  0.05093261       0.008
   0.05496099  0.08872718  0.05125313       0.008
  -0.02748050  0.08872718  0.05029157       0.008
   0.00000000 -0.06654538  0.05061209       0.008
   0.02748050 -0.06654538  0.05093261       0.008
   0.05496099 -0.06654538  0.05125313       0.008
  -0.02748050 -0.06654538  0.05029157       0.008
   0.00000000 -0.04436359  0.05061209       0.008
   0.02748050 -0.04436359  0.05093261       0.008
   0.05496099 -0.04436359  0.05125313       0.008
  -0.02748050 -0.04436359  0.05029157       0.008
   0.00000000 -0.02218179  0.05061209       0.008
   0.02748050 -0.02218179  0.05093261       0.008
   0.05496099 -0.02218179  0.05125313       0.008
  -0.02748050 -0.02218179  0.05029157       0.008
   0.00000000  0.00000000  0.07591814       0.008
   0.02748050  0.00000000  0.07623866       0.008
   0.05496099  0.00000000  0.07655918       0.008
  -0.02748050  0.00000000  0.07559762       0.008
   0.00000000  0.02218179  0.07591814       0.008
   0.02748050  0.02218179  0.07623866       0.008
   0.05496099  0.02218179  0.07655918       0.008
  -0.02748050  0.02218179  0.07559762       0.008
   0.00000000  0.04436359  0.07591814       0.008
   0.02748050  0.04436359  0.07623866       0.008
   0.05496099  0.04436359  0.07655918       0.008
  -0.02748050  0.04436359  0.07559762       0.008
   0.00000000  0.06654538  0.07591814       0.008
   0.02748050  0.06654538  0.07623866       0.008
   0.05496099  0.06654538  0.07655918       0.008
  -0.02748050  0.06654538  0.07559762       0.008
   0.00000000  0.08872718  0.07591814       0.008
   0.02748050  0.08872718  0.07623866       0.008
   0.05496099  0.08872718  0.07655918       0.008
  -0.02748050  0.08872718  0.07559762       0.008
   0.00000000 -0.06654538  0.07591814       0.008
   0.02748050 -0.06654538  0.07623866       0.008
   0.05496099 -0.06654538  0.07655918       0.008
  -0.02748050 -0.06654538  0.07559762       0.008
   0.00000000 -0.04436359  0.07591814       0.008
   0.02748050 -0.04436359  0.07623866       0.008
   0.05496099 -0.04436359  0.07655918       0.008
  -0.02748050 -0.04436359  0.07559762       0.008
   0.00000000 -0.02218179  0.07591814       0.008
   0.02748050 -0.02218179  0.07623866       0.008
   0.05496099 -0.02218179  0.07655918       0.008
  -0.02748050 -0.02218179  0.07559762       0.008
   0.00000000  0.00000000  0.10122418       0.004
   0.02748050  0.00000000  0.10154470       0.008
   0.05496099  0.00000000  0.10186523       0.004
   0.00000000  0.02218179  0.10122418       0.008
   0.02748050  0.02218179  0.10154470       0.008
   0.05496099  0.02218179  0.10186523       0.008
  -0.02748050  0.02218179  0.10090366       0.008
   0.00000000  0.04436359  0.10122418       0.008
   0.02748050  0.04436359  0.10154470       0.008
   0.05496099  0.04436359  0.10186523       0.008
  -0.02748050  0.04436359  0.10090366       0.008
   0.00000000  0.06654538  0.10122418       0.008
   0.02748050  0.06654538  0.10154470       0.008
   0.05496099  0.06654538  0.10186523       0.008
  -0.02748050  0.06654538  0.10090366       0.008
   0.00000000  0.08872718  0.10122418       0.004
   0.02748050  0.08872718  0.10154470       0.008
   0.05496099  0.08872718  0.10186523       0.004
 
 k-points in reciprocal lattice and weights: Automatic mesh                          
   0.00000000  0.00000000  0.00000000       0.004
   0.25000000  0.00000000  0.00000000       0.008
   0.50000000  0.00000000  0.00000000       0.004
   0.00000000  0.12500000  0.00000000       0.008
   0.25000000  0.12500000  0.00000000       0.008
   0.50000000  0.12500000  0.00000000       0.008
  -0.25000000  0.12500000  0.00000000       0.008
   0.00000000  0.25000000  0.00000000       0.008
   0.25000000  0.25000000  0.00000000       0.008
   0.50000000  0.25000000  0.00000000       0.008
  -0.25000000  0.25000000  0.00000000       0.008
   0.00000000  0.37500000  0.00000000       0.008
   0.25000000  0.37500000  0.00000000       0.008
   0.50000000  0.37500000  0.00000000       0.008
  -0.25000000  0.37500000  0.00000000       0.008
   0.00000000  0.50000000  0.00000000       0.004
   0.25000000  0.50000000  0.00000000       0.008
   0.50000000  0.50000000  0.00000000       0.004
   0.00000000  0.00000000  0.12500000       0.008
   0.25000000  0.00000000  0.12500000       0.008
   0.50000000  0.00000000  0.12500000       0.008
  -0.25000000  0.00000000  0.12500000       0.008
   0.00000000  0.12500000  0.12500000       0.008
   0.25000000  0.12500000  0.12500000       0.008
   0.50000000  0.12500000  0.12500000       0.008
  -0.25000000  0.12500000  0.12500000       0.008
   0.00000000  0.25000000  0.12500000       0.008
   0.25000000  0.25000000  0.12500000       0.008
   0.50000000  0.25000000  0.12500000       0.008
  -0.25000000  0.25000000  0.12500000       0.008
   0.00000000  0.37500000  0.12500000       0.008
   0.25000000  0.37500000  0.12500000       0.008
   0.50000000  0.37500000  0.12500000       0.008
  -0.25000000  0.37500000  0.12500000       0.008
   0.00000000  0.50000000  0.12500000       0.008
   0.25000000  0.50000000  0.12500000       0.008
   0.50000000  0.50000000  0.12500000       0.008
  -0.25000000  0.50000000  0.12500000       0.008
   0.00000000 -0.37500000  0.12500000       0.008
   0.25000000 -0.37500000  0.12500000       0.008
   0.50000000 -0.37500000  0.12500000       0.008
  -0.25000000 -0.37500000  0.12500000       0.008
   0.00000000 -0.25000000  0.12500000       0.008
   0.25000000 -0.25000000  0.12500000       0.008
   0.50000000 -0.25000000  0.12500000       0.008
  -0.25000000 -0.25000000  0.12500000       0.008
   0.00000000 -0.12500000  0.12500000       0.008
   0.25000000 -0.12500000  0.12500000       0.008
   0.50000000 -0.12500000  0.12500000       0.008
  -0.25000000 -0.12500000  0.12500000       0.008
   0.00000000  0.00000000  0.25000000       0.008
   0.25000000  0.00000000  0.25000000       0.008
   0.50000000  0.00000000  0.25000000       0.008
  -0.25000000  0.00000000  0.25000000       0.008
   0.00000000  0.12500000  0.25000000       0.008
   0.25000000  0.12500000  0.25000000       0.008
   0.50000000  0.12500000  0.25000000       0.008
  -0.25000000  0.12500000  0.25000000       0.008
   0.00000000  0.25000000  0.25000000       0.008
   0.25000000  0.25000000  0.25000000       0.008
   0.50000000  0.25000000  0.25000000       0.008
  -0.25000000  0.25000000  0.25000000       0.008
   0.00000000  0.37500000  0.25000000       0.008
   0.25000000  0.37500000  0.25000000       0.008
   0.50000000  0.37500000  0.25000000       0.008
  -0.25000000  0.37500000  0.25000000       0.008
   0.00000000  0.50000000  0.25000000       0.008
   0.25000000  0.50000000  0.25000000       0.008
   0.50000000  0.50000000  0.25000000       0.008
  -0.25000000  0.50000000  0.25000000       0.008
   0.00000000 -0.37500000  0.25000000       0.008
   0.25000000 -0.37500000  0.25000000       0.008
   0.50000000 -0.37500000  0.25000000       0.008
  -0.25000000 -0.37500000  0.25000000       0.008
   0.00000000 -0.25000000  0.25000000       0.008
   0.25000000 -0.25000000  0.25000000       0.008
   0.50000000 -0.25000000  0.25000000       0.008
  -0.25000000 -0.25000000  0.25000000       0.008
   0.00000000 -0.12500000  0.25000000       0.008
   0.25000000 -0.12500000  0.25000000       0.008
   0.50000000 -0.12500000  0.25000000       0.008
  -0.25000000 -0.12500000  0.25000000       0.008
   0.00000000  0.00000000  0.37500000       0.008
   0.25000000  0.00000000  0.37500000       0.008
   0.50000000  0.00000000  0.37500000       0.008
  -0.25000000  0.00000000  0.37500000       0.008
   0.00000000  0.12500000  0.37500000       0.008
   0.25000000  0.12500000  0.37500000       0.008
   0.50000000  0.12500000  0.37500000       0.008
  -0.25000000  0.12500000  0.37500000       0.008
   0.00000000  0.25000000  0.37500000       0.008
   0.25000000  0.25000000  0.37500000       0.008
   0.50000000  0.25000000  0.37500000       0.008
  -0.25000000  0.25000000  0.37500000       0.008
   0.00000000  0.37500000  0.37500000       0.008
   0.25000000  0.37500000  0.37500000       0.008
   0.50000000  0.37500000  0.37500000       0.008
  -0.25000000  0.37500000  0.37500000       0.008
   0.00000000  0.50000000  0.37500000       0.008
   0.25000000  0.50000000  0.37500000       0.008
   0.50000000  0.50000000  0.37500000       0.008
  -0.25000000  0.50000000  0.37500000       0.008
   0.00000000 -0.37500000  0.37500000       0.008
   0.25000000 -0.37500000  0.37500000       0.008
   0.50000000 -0.37500000  0.37500000       0.008
  -0.25000000 -0.37500000  0.37500000       0.008
   0.00000000 -0.25000000  0.37500000       0.008
   0.25000000 -0.25000000  0.37500000       0.008
   0.50000000 -0.25000000  0.37500000       0.008
  -0.25000000 -0.25000000  0.37500000       0.008
   0.00000000 -0.12500000  0.37500000       0.008
   0.25000000 -0.12500000  0.37500000       0.008
   0.50000000 -0.12500000  0.37500000       0.008
  -0.25000000 -0.12500000  0.37500000       0.008
   0.00000000  0.00000000  0.50000000       0.004
   0.25000000  0.00000000  0.50000000       0.008
   0.50000000  0.00000000  0.50000000       0.004
   0.00000000  0.12500000  0.50000000       0.008
   0.25000000  0.12500000  0.50000000       0.008
   0.50000000  0.12500000  0.50000000       0.008
  -0.25000000  0.12500000  0.50000000       0.008
   0.00000000  0.25000000  0.50000000       0.008
   0.25000000  0.25000000  0.50000000       0.008
   0.50000000  0.25000000  0.50000000       0.008
  -0.25000000  0.25000000  0.50000000       0.008
   0.00000000  0.37500000  0.50000000       0.008
   0.25000000  0.37500000  0.50000000       0.008
   0.50000000  0.37500000  0.50000000       0.008
  -0.25000000  0.37500000  0.50000000       0.008
   0.00000000  0.50000000  0.50000000       0.004
   0.25000000  0.50000000  0.50000000       0.008
   0.50000000  0.50000000  0.50000000       0.004
 
 position of ions in fractional coordinates (direct lattice) 
   0.25000000  0.65024501  0.25000000
   0.75000000  0.65024501  0.25000000
   0.25000000  0.34975499  0.75000000
   0.75000000  0.34975499  0.75000000
   0.11312600  0.11317400  0.92591602
   0.61312598  0.11317400  0.92591602
   0.38687399  0.88682598  0.07408400
   0.88687396  0.88682598  0.07408400
   0.38687399  0.11317400  0.57408398
   0.88687396  0.11317400  0.57408398
   0.11312600  0.88682598  0.42591599
   0.61312598  0.88682598  0.42591599
   0.13285799  0.37849501  0.40985799
   0.63285798  0.37849501  0.40985799
   0.36714199  0.62150502  0.59014100
   0.86714196  0.62150502  0.59014100
   0.36714199  0.37849501  0.09014200
   0.86714196  0.37849501  0.09014200
   0.13285799  0.62150502  0.90985900
   0.63285798  0.62150502  0.90985900
   0.00000000  0.17278600  0.25000000
   0.50000000  0.17278600  0.25000000
   0.00000000  0.82721400  0.75000000
   0.50000000  0.82721400  0.75000000
 
 position of ions in cartesian coordinates  (Angst):
   2.25993724  3.66429450  1.23488276
   6.80861802  3.66429450  1.23488276
   2.23113094  1.97095750  3.70464828
   6.77981172  1.97095750  3.70464828
   0.97580371  0.63776400  4.57359091
   5.52448430  0.63776400  4.57359091
   3.51526440  4.99748787  0.36594021
   8.06394490  4.99748787  0.36594021
   3.48645810  0.63776400  2.83570566
   8.03513861  0.63776400  2.83570566
   1.00461002  4.99748787  2.10382524
   5.55329060  4.99748787  2.10382524
   1.18504422  2.13291475  2.02450626
   5.73372486  2.13291475  2.02450626
   3.30602389  3.50233742  2.91501978
   7.85470440  3.50233742  2.91501978
   3.33483013  2.13291475  0.44525919
   7.88351064  2.13291475  0.44525919
   1.15623786  3.50233742  4.49427679
   5.70491850  3.50233742  4.49427679
  -0.01440315  0.97369263  1.23488276
   4.53427763  0.97369263  1.23488276
  -0.04320945  4.66155936  3.70464828
   4.50547133  4.66155936  3.70464828
 


--------------------------------------------------------------------------------------------------------


 k-point  1 :   0.0000 0.0000 0.0000  plane waves:    6435
 k-point  2 :   0.2500 0.0000 0.0000  plane waves:    6431
 k-point  3 :   0.5000 0.0000 0.0000  plane waves:    6402
 k-point  4 :   0.0000 0.1250 0.0000  plane waves:    6439
 k-point  5 :   0.2500 0.1250 0.0000  plane waves:    6414
 k-point  6 :   0.5000 0.1250 0.0000  plane waves:    6406
 k-point  7 :  -0.2500 0.1250 0.0000  plane waves:    6414
 k-point  8 :   0.0000 0.2500 0.0000  plane waves:    6403
 k-point  9 :   0.2500 0.2500 0.0000  plane waves:    6394
 k-point 10 :   0.5000 0.2500 0.0000  plane waves:    6408
 k-point 11 :  -0.2500 0.2500 0.0000  plane waves:    6394
 k-point 12 :   0.0000 0.3750 0.0000  plane waves:    6398
 k-point 13 :   0.2500 0.3750 0.0000  plane waves:    6407
 k-point 14 :   0.5000 0.3750 0.0000  plane waves:    6418
 k-point 15 :  -0.2500 0.3750 0.0000  plane waves:    6407
 k-point 16 :   0.0000 0.5000 0.0000  plane waves:    6408
 k-point 17 :   0.2500 0.5000 0.0000  plane waves:    6408
 k-point 18 :   0.5000 0.5000 0.0000  plane waves:    6420
 k-point 19 :   0.0000 0.0000 0.1250  plane waves:    6432
 k-point 20 :   0.2500 0.0000 0.1250  plane waves:    6426
 k-point 21 :   0.5000 0.0000 0.1250  plane waves:    6409
 k-point 22 :  -0.2500 0.0000 0.1250  plane waves:    6430
 k-point 23 :   0.0000 0.1250 0.1250  plane waves:    6435
 k-point 24 :   0.2500 0.1250 0.1250  plane waves:    6434
 k-point 25 :   0.5000 0.1250 0.1250  plane waves:    6420
 k-point 26 :  -0.2500 0.1250 0.1250  plane waves:    6430
 k-point 27 :   0.0000 0.2500 0.1250  plane waves:    6419
 k-point 28 :   0.2500 0.2500 0.1250  plane waves:    6417
 k-point 29 :   0.5000 0.2500 0.1250  plane waves:    6413
 k-point 30 :  -0.2500 0.2500 0.1250  plane waves:    6412
 k-point 31 :   0.0000 0.3750 0.1250  plane waves:    6411
 k-point 32 :   0.2500 0.3750 0.1250  plane waves:    6418
 k-point 33 :   0.5000 0.3750 0.1250  plane waves:    6430
 k-point 34 :  -0.2500 0.3750 0.1250  plane waves:    6423
 k-point 35 :   0.0000 0.5000 0.1250  plane waves:    6426
 k-point 36 :   0.2500 0.5000 0.1250  plane waves:    6424
 k-point 37 :   0.5000 0.5000 0.1250  plane waves:    6432
 k-point 38 :  -0.2500 0.5000 0.1250  plane waves:    6434
 k-point 39 :   0.0000-0.3750 0.1250  plane waves:    6411
 k-point 40 :   0.2500-0.3750 0.1250  plane waves:    6418
 k-point 41 :   0.5000-0.3750 0.1250  plane waves:    6430
 k-point 42 :  -0.2500-0.3750 0.1250  plane waves:    6423
 k-point 43 :   0.0000-0.2500 0.1250  plane waves:    6419
 k-point 44 :   0.2500-0.2500 0.1250  plane waves:    6417
 k-point 45 :   0.5000-0.2500 0.1250  plane waves:    6413
 k-point 46 :  -0.2500-0.2500 0.1250  plane waves:    6412
 k-point 47 :   0.0000-0.1250 0.1250  plane waves:    6435
 k-point 48 :   0.2500-0.1250 0.1250  plane waves:    6434
 k-point 49 :   0.5000-0.1250 0.1250  plane waves:    6420
 k-point 50 :  -0.2500-0.1250 0.1250  plane waves:    6430
 k-point 51 :   0.0000 0.0000 0.2500  plane waves:    6435
 k-point 52 :   0.2500 0.0000 0.2500  plane waves:    6445
 k-point 53 :   0.5000 0.0000 0.2500  plane waves:    6426
 k-point 54 :  -0.2500 0.0000 0.2500  plane waves:    6435
 k-point 55 :   0.0000 0.1250 0.2500  plane waves:    6437
 k-point 56 :   0.2500 0.1250 0.2500  plane waves:    6431
 k-point 57 :   0.5000 0.1250 0.2500  plane waves:    6439
 k-point 58 :  -0.2500 0.1250 0.2500  plane waves:    6439
 k-point 59 :   0.0000 0.2500 0.2500  plane waves:    6433
 k-point 60 :   0.2500 0.2500 0.2500  plane waves:    6418
 k-point 61 :   0.5000 0.2500 0.2500  plane waves:    6432
 k-point 62 :  -0.2500 0.2500 0.2500  plane waves:    6430
 k-point 63 :   0.0000 0.3750 0.2500  plane waves:    6424
 k-point 64 :   0.2500 0.3750 0.2500  plane waves:    6432
 k-point 65 :   0.5000 0.3750 0.2500  plane waves:    6427
 k-point 66 :  -0.2500 0.3750 0.2500  plane waves:    6434
 k-point 67 :   0.0000 0.5000 0.2500  plane waves:    6444
 k-point 68 :   0.2500 0.5000 0.2500  plane waves:    6444
 k-point 69 :   0.5000 0.5000 0.2500  plane waves:    6422
 k-point 70 :  -0.2500 0.5000 0.2500  plane waves:    6432
 k-point 71 :   0.0000-0.3750 0.2500  plane waves:    6424
 k-point 72 :   0.2500-0.3750 0.2500  plane waves:    6432
 k-point 73 :   0.5000-0.3750 0.2500  plane waves:    6427
 k-point 74 :  -0.2500-0.3750 0.2500  plane waves:    6434
 k-point 75 :   0.0000-0.2500 0.2500  plane waves:    6433
 k-point 76 :   0.2500-0.2500 0.2500  plane waves:    6418
 k-point 77 :   0.5000-0.2500 0.2500  plane waves:    6432
 k-point 78 :  -0.2500-0.2500 0.2500  plane waves:    6430
 k-point 79 :   0.0000-0.1250 0.2500  plane waves:    6437
 k-point 80 :   0.2500-0.1250 0.2500  plane waves:    6431
 k-point 81 :   0.5000-0.1250 0.2500  plane waves:    6439
 k-point 82 :  -0.2500-0.1250 0.2500  plane waves:    6439
 k-point 83 :   0.0000 0.0000 0.3750  plane waves:    6437
 k-point 84 :   0.2500 0.0000 0.3750  plane waves:    6428
 k-point 85 :   0.5000 0.0000 0.3750  plane waves:    6416
 k-point 86 :  -0.2500 0.0000 0.3750  plane waves:    6434
 k-point 87 :   0.0000 0.1250 0.3750  plane waves:    6435
 k-point 88 :   0.2500 0.1250 0.3750  plane waves:    6434
 k-point 89 :   0.5000 0.1250 0.3750  plane waves:    6431
 k-point 90 :  -0.2500 0.1250 0.3750  plane waves:    6438
 k-point 91 :   0.0000 0.2500 0.3750  plane waves:    6437
 k-point 92 :   0.2500 0.2500 0.3750  plane waves:    6437
 k-point 93 :   0.5000 0.2500 0.3750  plane waves:    6438
 k-point 94 :  -0.2500 0.2500 0.3750  plane waves:    6438
 k-point 95 :   0.0000 0.3750 0.3750  plane waves:    6441
 k-point 96 :   0.2500 0.3750 0.3750  plane waves:    6439
 k-point 97 :   0.5000 0.3750 0.3750  plane waves:    6445
 k-point 98 :  -0.2500 0.3750 0.3750  plane waves:    6449
 k-point 99 :   0.0000 0.5000 0.3750  plane waves:    6450
 k-point ** :   0.2500 0.5000 0.3750  plane waves:    6442
 k-point ** :   0.5000 0.5000 0.3750  plane waves:    6438
 k-point ** :  -0.2500 0.5000 0.3750  plane waves:    6458
 k-point ** :   0.0000-0.3750 0.3750  plane waves:    6441
 k-point ** :   0.2500-0.3750 0.3750  plane waves:    6439
 k-point ** :   0.5000-0.3750 0.3750  plane waves:    6445
 k-point ** :  -0.2500-0.3750 0.3750  plane waves:    6449
 k-point ** :   0.0000-0.2500 0.3750  plane waves:    6437
 k-point ** :   0.2500-0.2500 0.3750  plane waves:    6437
 k-point ** :   0.5000-0.2500 0.3750  plane waves:    6438
 k-point ** :  -0.2500-0.2500 0.3750  plane waves:    6438
 k-point ** :   0.0000-0.1250 0.3750  plane waves:    6435
 k-point ** :   0.2500-0.1250 0.3750  plane waves:    6434
 k-point ** :   0.5000-0.1250 0.3750  plane waves:    6431
 k-point ** :  -0.2500-0.1250 0.3750  plane waves:    6438
 k-point ** :   0.0000 0.0000 0.5000  plane waves:    6450
 k-point ** :   0.2500 0.0000 0.5000  plane waves:    6445
 k-point ** :   0.5000 0.0000 0.5000  plane waves:    6436
 k-point ** :   0.0000 0.1250 0.5000  plane waves:    6436
 k-point ** :   0.2500 0.1250 0.5000  plane waves:    6435
 k-point ** :   0.5000 0.1250 0.5000  plane waves:    6432
 k-point ** :  -0.2500 0.1250 0.5000  plane waves:    6435
 k-point ** :   0.0000 0.2500 0.5000  plane waves:    6436
 k-point ** :   0.2500 0.2500 0.5000  plane waves:    6440
 k-point ** :   0.5000 0.2500 0.5000  plane waves:    6432
 k-point ** :  -0.2500 0.2500 0.5000  plane waves:    6440
 k-point ** :   0.0000 0.3750 0.5000  plane waves:    6448
 k-point ** :   0.2500 0.3750 0.5000  plane waves:    6430
 k-point ** :   0.5000 0.3750 0.5000  plane waves:    6446
 k-point ** :  -0.2500 0.3750 0.5000  plane waves:    6430
 k-point ** :   0.0000 0.5000 0.5000  plane waves:    6448
 k-point ** :   0.2500 0.5000 0.5000  plane waves:    6444
 k-point ** :   0.5000 0.5000 0.5000  plane waves:    6428

 maximum and minimum number of plane-waves per node :      1675     1540

 maximum number of plane-waves:      6458
 maximum index in each direction: 
   IXMAX=   16   IYMAX=   10   IZMAX=    9
   IXMIN=  -17   IYMIN=  -10   IZMIN=   -9


 real space projection operators:
  total allocation   :       3286.00 KBytes
  max/ min on nodes  :        855.53        787.47


 parallel 3D FFT for wavefunctions:
    minimum data exchange during FFTs selected (reduces bandwidth)
 parallel 3D FFT for charge:
    minimum data exchange during FFTs selected (reduces bandwidth)


 total amount of memory used by VASP MPI-rank0   146492. kBytes
=======================================================================

   base      :      30000. kBytes
   nonlr-proj:       2221. kBytes
   fftplans  :        836. kBytes
   grid      :       2243. kBytes
   one-center:        186. kBytes
   wavefun   :     111006. kBytes
 
     INWAV:  cpu time    0.0000: real time    0.0002
 Broyden mixing: mesh for mixing (old mesh)
   NGX = 33   NGY = 21   NGZ = 19
  (NGX  =100   NGY  = 64   NGZ  = 56)
  gives a total of  13167 points

 initial charge density was supplied:
 charge density of overlapping atoms calculated
 number of electron     184.0000000 magnetization       8.0000000
 keeping initial charge density in first step


--------------------------------------------------------------------------------------------------------


 Maximum index for non-local projection operator          815
 Maximum index for augmentation-charges         1077 (set IRDMAX)


--------------------------------------------------------------------------------------------------------


 First call to EWALD:  gamma=   0.280
 Maximum number of real-space cells 2x 3x 3
 Maximum number of reciprocal cells 4x 3x 2

    FEWALD:  cpu time    0.0016: real time    0.0016


--------------------------------------- Iteration      1(   1)  ---------------------------------------


    POTLOK:  cpu time    0.0222: real time    0.0225
    SETDIJ:  cpu time    0.0067: real time    0.0067
atom =   1  type =  1  l = 2
 
 onsite density matrix
 
spin component  1
 
  0.9237  0.0000  0.0000  0.0000  0.0000
  0.0000  0.9237  0.0000  0.0000  0.0000
  0.0000  0.0000  0.9237  0.0000  0.0000
  0.0000  0.0000  0.0000  0.9237  0.0000
  0.0000  0.0000  0.0000  0.0000  0.9237
 
spin component  2
 
  0.7184  0.0000  0.0000  0.0000  0.0000
  0.0000  0.7184  0.0000  0.0000  0.0000
  0.0000  0.0000  0.7184  0.0000  0.0000
  0.0000  0.0000  0.0000  0.7184  0.0000
  0.0000  0.0000  0.0000  0.0000  0.7184
 
 occupancies and eigenvectors
 
  o =  0.7184  v =  0.0000  0.0000  0.0000  0.0000  0.0000  1.0000  0.0000  0.0000  0.0000  0.0000      0.0000  0.0000  0.0000  0.0000  0.0000  0.0000  0.0000  0.0000  0.0000  0.0000
  o =  0.7184  v =  0.0000  0.0000  0.0000  0.0000  0.0000  0.0000  1.0000  0.0000  0.0000  0.0000      0.0000  0.0000  0.0000  0.0000  0.0000  0.0000  0.0000  0.0000  0.0000  0.0000
  o =  0.7184  v =  0.0000  0.0000  0.0000  0.0000  0.0000  0.0000  0.0000  1.0000  0.0000  0.0000      0.0000  0.0000  0.0000  0.0000  0.0000  0.0000  0.0000  0.0000  0.0000  0.0000
  o =  0.7184  v =  0.0000  0.0000  0.0000  0.0000  0.0000  0.0000  0.0000  0.0000  1.0000  0.0000      0.0000  0.0000  0.0000  0.0000  0.0000  0.0000  0.0000  0.0000  0.0000  0.0000
  o =  0.7184  v =  0.0000  0.0000  0.0000  0.0000  0.0000  0.0000  0.0000  0.0000  0.0000  1.0000      0.0000  0.0000  0.0000  0.0000  0.0000  0.0000  0.0000  0.0000  0.0000  0.0000
  o =  0.9237  v =  1.0000  0.0000  0.0000  0.0000  0.0000  0.0000  0.0000  0.0000  0.0000  0.0000      0.0000  0.0000  0.0000  0.0000  0.0000  0.0000  0.0000  0.0000  0.0000  0.0000
  o =  0.9237  v =  0.0000  1.0000  0.0000  0.0000  0.0000  0.0000  0.0000  0.0000  0.0000  0.0000      0.0000  0.0000  0.0000  0.0000  0.0000  0.0000  0.0000  0.0000  0.0000  0.0000
  o =  0.9237  v =  0.0000  0.0000  1.0000  0.0000  0.0000  0.0000  0.0000  0.0000  0.0000  0.0000      0.0000  0.0000  0.0000  0.0000  0.0000  0.0000  0.0000  0.0000  0.0000  0.0000
  o =  0.9237  v =  0.0000  0.0000  0.0000  1.0000  0.0000  0.0000  0.0000  0.0000  0.0000  0.0000      0.0000  0.0000  0.0000  0.0000  0.0000  0.0000  0.0000  0.0000  0.0000  0.0000
  o =  0.9237  v =  0.0000  0.0000  0.0000  0.0000  1.0000  0.0000  0.0000  0.0000  0.0000  0.0000      0.0000  0.0000  0.0000  0.0000  0.0000  0.0000  0.0000  0.0000  0.0000  0.0000
atom =   2  type =  1  l = 2
 
 onsite density matrix
 
spin component  1
 
  0.9237  0.0000  0.0000  0.0000  0.0000
  0.0000  0.9237  0.0000  0.0000  0.0000
  0.0000  0.0000  0.9237  0.0000  0.0000
  0.0000  0.0000  0.0000  0.9237  0.0000
  0.0000  0.0000  0.0000  0.0000  0.9237
 
spin component  2
 
  0.7184  0.0000  0.0000  0.0000  0.0000
  0.0000  0.7184  0.0000  0.0000  0.0000
  0.0000  0.0000  0.7184  0.0000  0.0000
  0.0000  0.0000  0.0000  0.7184  0.0000
  0.0000  0.0000  0.0000  0.0000  0.7184
 
 occupancies and eigenvectors
 
  o =  0.7184  v =  0.0000  0.0000  0.0000  0.0000  0.0000  1.0000  0.0000  0.0000  0.0000  0.0000      0.0000  0.0000  0.0000  0.0000  0.0000  0.0000  0.0000  0.0000  0.0000  0.0000
  o =  0.7184  v =  0.0000  0.0000  0.0000  0.0000  0.0000  0.0000  1.0000  0.0000  0.0000  0.0000      0.0000  0.0000  0.0000  0.0000  0.0000  0.0000  0.0000  0.0000  0.0000  0.0000
  o =  0.7184  v =  0.0000  0.0000  0.0000  0.0000  0.0000  0.0000  0.0000  1.0000  0.0000  0.0000      0.0000  0.0000  0.0000  0.0000  0.0000  0.0000  0.0000  0.0000  0.0000  0.0000
  o =  0.7184  v =  0.0000  0.0000  0.0000  0.0000  0.0000  0.0000  0.0000  0.0000  1.0000  0.0000      0.0000  0.0000  0.0000  0.0000  0.0000  0.0000  0.0000  0.0000  0.0000  0.0000
  o =  0.7184  v =  0.0000  0.0000  0.0000  0.0000  0.0000  0.0000  0.0000  0.0000  0.0000  1.0000      0.0000  0.0000  0.0000  0.0000  0.0000  0.0000  0.0000  0.0000  0.0000  0.0000
  o =  0.9237  v =  1.0000  0.0000  0.0000  0.0000  0.0000  0.0000  0.0000  0.0000  0.0000  0.0000      0.0000  0.0000  0.0000  0.0000  0.0000  0.0000  0.0000  0.0000  0.0000  0.0000
  o =  0.9237  v =  0.0000  1.0000  0.0000  0.0000  0.0000  0.0000  0.0000  0.0000  0.0000  0.0000      0.0000  0.0000  0.0000  0.0000  0.0000  0.0000  0.0000  0.0000  0.0000  0.0000
  o =  0.9237  v =  0.0000  0.0000  1.0000  0.0000  0.0000  0.0000  0.0000  0.0000  0.0000  0.0000      0.0000  0.0000  0.0000  0.0000  0.0000  0.0000  0.0000  0.0000  0.0000  0.0000
  o =  0.9237  v =  0.0000  0.0000  0.0000  1.0000  0.0000  0.0000  0.0000  0.0000  0.0000  0.0000      0.0000  0.0000  0.0000  0.0000  0.0000  0.0000  0.0000  0.0000  0.0000  0.0000
  o =  0.9237  v =  0.0000  0.0000  0.0000  0.0000  1.0000  0.0000  0.0000  0.0000  0.0000  0.0000      0.0000  0.0000  0.0000  0.0000  0.0000  0.0000  0.0000  0.0000  0.0000  0.0000
atom =   3  type =  1  l = 2
 
 onsite density matrix
 
spin component  1
 
  0.9237  0.0000  0.0000  0.0000  0.0000
  0.0000  0.9237  0.0000  0.0000  0.0000
  0.0000  0.0000  0.9237  0.0000  0.0000
  0.0000  0.0000  0.0000  0.9237  0.0000
  0.0000  0.0000  0.0000  0.0000  0.9237
 
spin component  2
 
  0.7184  0.0000  0.0000  0.0000  0.0000
  0.0000  0.7184  0.0000  0.0000  0.0000
  0.0000  0.0000  0.7184  0.0000  0.0000
  0.0000  0.0000  0.0000  0.7184  0.0000
  0.0000  0.0000  0.0000  0.0000  0.7184
 
 occupancies and eigenvectors
 
  o =  0.7184  v =  0.0000  0.0000  0.0000  0.0000  0.0000  1.0000  0.0000  0.0000  0.0000  0.0000      0.0000  0.0000  0.0000  0.0000  0.0000  0.0000  0.0000  0.0000  0.0000  0.0000
  o =  0.7184  v =  0.0000  0.0000  0.0000  0.0000  0.0000  0.0000  1.0000  0.0000  0.0000  0.0000      0.0000  0.0000  0.0000  0.0000  0.0000  0.0000  0.0000  0.0000  0.0000  0.0000
  o =  0.7184  v =  0.0000  0.0000  0.0000  0.0000  0.0000  0.0000  0.0000  1.0000  0.0000  0.0000      0.0000  0.0000  0.0000  0.0000  0.0000  0.0000  0.0000  0.0000  0.0000  0.0000
  o =  0.7184  v =  0.0000  0.0000  0.0000  0.0000  0.0000  0.0000  0.0000  0.0000  1.0000  0.0000      0.0000  0.0000  0.0000  0.0000  0.0000  0.0000  0.0000  0.0000  0.0000  0.0000
  o =  0.7184  v =  0.0000  0.0000  0.0000  0.0000  0.0000  0.0000  0.0000  0.0000  0.0000  1.0000      0.0000  0.0000  0.0000  0.0000  0.0000  0.0000  0.0000  0.0000  0.0000  0.0000
  o =  0.9237  v =  1.0000  0.0000  0.0000  0.0000  0.0000  0.0000  0.0000  0.0000  0.0000  0.0000      0.0000  0.0000  0.0000  0.0000  0.0000  0.0000  0.0000  0.0000  0.0000  0.0000
  o =  0.9237  v =  0.0000  1.0000  0.0000  0.0000  0.0000  0.0000  0.0000  0.0000  0.0000  0.0000      0.0000  0.0000  0.0000  0.0000  0.0000  0.0000  0.0000  0.0000  0.0000  0.0000
  o =  0.9237  v =  0.0000  0.0000  1.0000  0.0000  0.0000  0.0000  0.0000  0.0000  0.0000  0.0000      0.0000  0.0000  0.0000  0.0000  0.0000  0.0000  0.0000  0.0000  0.0000  0.0000
  o =  0.9237  v =  0.0000  0.0000  0.0000  1.0000  0.0000  0.0000  0.0000  0.0000  0.0000  0.0000      0.0000  0.0000  0.0000  0.0000  0.0000  0.0000  0.0000  0.0000  0.0000  0.0000
  o =  0.9237  v =  0.0000  0.0000  0.0000  0.0000  1.0000  0.0000  0.0000  0.0000  0.0000  0.0000      0.0000  0.0000  0.0000  0.0000  0.0000  0.0000  0.0000  0.0000  0.0000  0.0000
atom =   4  type =  1  l = 2
 
 onsite density matrix
 
spin component  1
 
  0.9237  0.0000  0.0000  0.0000  0.0000
  0.0000  0.9237  0.0000  0.0000  0.0000
  0.0000  0.0000  0.9237  0.0000  0.0000
  0.0000  0.0000  0.0000  0.9237  0.0000
  0.0000  0.0000  0.0000  0.0000  0.9237
 
spin component  2
 
  0.7184  0.0000  0.0000  0.0000  0.0000
  0.0000  0.7184  0.0000  0.0000  0.0000
  0.0000  0.0000  0.7184  0.0000  0.0000
  0.0000  0.0000  0.0000  0.7184  0.0000
  0.0000  0.0000  0.0000  0.0000  0.7184
 
 occupancies and eigenvectors
 
  o =  0.7184  v =  0.0000  0.0000  0.0000  0.0000  0.0000  1.0000  0.0000  0.0000  0.0000  0.0000      0.0000  0.0000  0.0000  0.0000  0.0000  0.0000  0.0000  0.0000  0.0000  0.0000
  o =  0.7184  v =  0.0000  0.0000  0.0000  0.0000  0.0000  0.0000  1.0000  0.0000  0.0000  0.0000      0.0000  0.0000  0.0000  0.0000  0.0000  0.0000  0.0000  0.0000  0.0000  0.0000
  o =  0.7184  v =  0.0000  0.0000  0.0000  0.0000  0.0000  0.0000  0.0000  1.0000  0.0000  0.0000      0.0000  0.0000  0.0000  0.0000  0.0000  0.0000  0.0000  0.0000  0.0000  0.0000
  o =  0.7184  v =  0.0000  0.0000  0.0000  0.0000  0.0000  0.0000  0.0000  0.0000  1.0000  0.0000      0.0000  0.0000  0.0000  0.0000  0.0000  0.0000  0.0000  0.0000  0.0000  0.0000
  o =  0.7184  v =  0.0000  0.0000  0.0000  0.0000  0.0000  0.0000  0.0000  0.0000  0.0000  1.0000      0.0000  0.0000  0.0000  0.0000  0.0000  0.0000  0.0000  0.0000  0.0000  0.0000
  o =  0.9237  v =  1.0000  0.0000  0.0000  0.0000  0.0000  0.0000  0.0000  0.0000  0.0000  0.0000      0.0000  0.0000  0.0000  0.0000  0.0000  0.0000  0.0000  0.0000  0.0000  0.0000
  o =  0.9237  v =  0.0000  1.0000  0.0000  0.0000  0.0000  0.0000  0.0000  0.0000  0.0000  0.0000      0.0000  0.0000  0.0000  0.0000  0.0000  0.0000  0.0000  0.0000  0.0000  0.0000
  o =  0.9237  v =  0.0000  0.0000  1.0000  0.0000  0.0000  0.0000  0.0000  0.0000  0.0000  0.0000      0.0000  0.0000  0.0000  0.0000  0.0000  0.0000  0.0000  0.0000  0.0000  0.0000
  o =  0.9237  v =  0.0000  0.0000  0.0000  1.0000  0.0000  0.0000  0.0000  0.0000  0.0000  0.0000      0.0000  0.0000  0.0000  0.0000  0.0000  0.0000  0.0000  0.0000  0.0000  0.0000
  o =  0.9237  v =  0.0000  0.0000  0.0000  0.0000  1.0000  0.0000  0.0000  0.0000  0.0000  0.0000      0.0000  0.0000  0.0000  0.0000  0.0000  0.0000  0.0000  0.0000  0.0000  0.0000
     EDDAV:  cpu time   24.2798: real time   24.2898
 BZINTS: Fermi energy: 22.535885;184.000000 electrons
         Band energy: 442.254475;  BLOECHL correction: -0.101279
       DOS:  cpu time    0.2856: real time    0.2856
    --------------------------------------------
      LOOP:  cpu time   24.5942: real time   24.6046

 eigenvalue-minimisations  : 71736
 total energy-change (2. order) : 0.2069009E+04  (-0.1030718E+05)
 number of electron     184.0000000 magnetization       8.0000000
 augmentation part      184.0000000 magnetization       8.0000000

 Free energy of the ion-electron system (eV)
  ---------------------------------------------------
  alpha Z        PSCENC =       928.37526142
  Ewald energy   TEWEN  =    -13734.27653964
  -Hartree energ DENC   =     -7563.11674902
  -exchange      EXHF   =         0.00000000
  -V(xc)+E(xc)   XCENC  =       606.06085476
  PAW double counting   =     18166.29703885   -18516.93881915
  entropy T*S    EENTRO =         0.00000000
  eigenvalues    EBANDS =       442.25447531
  atomic energy  EATOM  =     21740.35362048
  Solvation  Ediel_sol  =         0.00000000
  ---------------------------------------------------
  free energy    TOTEN  =      2069.00914301 eV

  energy without entropy =     2069.00914301  energy(sigma->0) =     2069.00914301


--------------------------------------------------------------------------------------------------------




--------------------------------------- Iteration      1(   2)  ---------------------------------------


     EDDAV:  cpu time   23.0237: real time   23.0331
 BZINTS: Fermi energy:  8.712206;184.000000 electrons
         Band energy:***********;  BLOECHL correction: -0.047877
       DOS:  cpu time    0.2877: real time    0.2878
    --------------------------------------------
      LOOP:  cpu time   23.3114: real time   23.3210

 eigenvalue-minimisations  : 67032
 total energy-change (2. order) :-0.2066591E+04  (-0.1939519E+04)
 number of electron     184.0000000 magnetization       8.0000000
 augmentation part      184.0000000 magnetization       8.0000000

 Free energy of the ion-electron system (eV)
  ---------------------------------------------------
  alpha Z        PSCENC =       928.37526142
  Ewald energy   TEWEN  =    -13734.27653964
  -Hartree energ DENC   =     -7563.11674902
  -exchange      EXHF   =         0.00000000
  -V(xc)+E(xc)   XCENC  =       606.06085476
  PAW double counting   =     18166.29703885   -18516.93881915
  entropy T*S    EENTRO =         0.00000000
  eigenvalues    EBANDS =     -1624.33687859
  atomic energy  EATOM  =     21740.35362048
  Solvation  Ediel_sol  =         0.00000000
  ---------------------------------------------------
  free energy    TOTEN  =         2.41778911 eV

  energy without entropy =        2.41778911  energy(sigma->0) =        2.41778911


--------------------------------------------------------------------------------------------------------




--------------------------------------- Iteration      1(   3)  ---------------------------------------


     EDDAV:  cpu time   24.5954: real time   24.6076
 BZINTS: Fermi energy:  7.094106;184.000000 electrons
         Band energy:***********;  BLOECHL correction:  0.000000
       DOS:  cpu time    0.0686: real time    0.0686
    --------------------------------------------
      LOOP:  cpu time   24.6639: real time   24.6762

 eigenvalue-minimisations  : 72992
 total energy-change (2. order) :-0.2330298E+03  (-0.2239926E+03)
 number of electron     184.0000000 magnetization       8.0000000
 augmentation part      184.0000000 magnetization       8.0000000

 Free energy of the ion-electron system (eV)
  ---------------------------------------------------
  alpha Z        PSCENC =       928.37526142
  Ewald energy   TEWEN  =    -13734.27653964
  -Hartree energ DENC   =     -7563.11674902
  -exchange      EXHF   =         0.00000000
  -V(xc)+E(xc)   XCENC  =       606.06085476
  PAW double counting   =     18166.29703885   -18516.93881915
  entropy T*S    EENTRO =         0.00000000
  eigenvalues    EBANDS =     -1857.36666072
  atomic energy  EATOM  =     21740.35362048
  Solvation  Ediel_sol  =         0.00000000
  ---------------------------------------------------
  free energy    TOTEN  =      -230.61199302 eV

  energy without entropy =     -230.61199302  energy(sigma->0) =     -230.61199302


--------------------------------------------------------------------------------------------------------




--------------------------------------- Iteration      1(   4)  ---------------------------------------


     EDDAV:  cpu time   25.2574: real time   25.2679
 BZINTS: Fermi energy:  6.999505;184.000000 electrons
         Band energy:***********;  BLOECHL correction:  0.000000
       DOS:  cpu time    0.0686: real time    0.0686
    --------------------------------------------
      LOOP:  cpu time   25.3260: real time   25.3365

 eigenvalue-minimisations  : 75440
 total energy-change (2. order) :-0.7933641E+01  (-0.7808410E+01)
 number of electron     184.0000000 magnetization       8.0000000
 augmentation part      184.0000000 magnetization       8.0000000

 Free energy of the ion-electron system (eV)
  ---------------------------------------------------
  alpha Z        PSCENC =       928.37526142
  Ewald energy   TEWEN  =    -13734.27653964
  -Hartree energ DENC   =     -7563.11674902
  -exchange      EXHF   =         0.00000000
  -V(xc)+E(xc)   XCENC  =       606.06085476
  PAW double counting   =     18166.29703885   -18516.93881915
  entropy T*S    EENTRO =         0.00000000
  eigenvalues    EBANDS =     -1865.30030130
  atomic energy  EATOM  =     21740.35362048
  Solvation  Ediel_sol  =         0.00000000
  ---------------------------------------------------
  free energy    TOTEN  =      -238.54563360 eV

  energy without entropy =     -238.54563360  energy(sigma->0) =     -238.54563360


--------------------------------------------------------------------------------------------------------




--------------------------------------- Iteration      1(   5)  ---------------------------------------


[...]
  0.006  -0.000   0.000  -0.006   0.000  -0.000   0.000  -0.000
 total augmentation occupancy for first ion, spin component:           1
  1.995   0.000   0.000  -0.021   0.000   0.000  -0.000   0.000  -0.003  -0.000  -0.007   0.000  -0.000   0.003   0.000   0.007
  0.000   1.995  -0.000   0.000  -0.021  -0.000  -0.000   0.008   0.000  -0.000   0.000   0.000  -0.008  -0.000   0.000  -0.000
  0.000  -0.000   1.995   0.000  -0.000  -0.022   0.007  -0.000  -0.000   0.000  -0.000  -0.007   0.000   0.000  -0.000   0.000
 -0.021   0.000   0.000   0.097   0.000   0.000   0.000  -0.000  -0.024   0.065  -0.085  -0.000   0.000   0.020  -0.057   0.075
  0.000  -0.021  -0.000   0.000   0.108   0.004   0.060   0.055  -0.000   0.000   0.000  -0.051  -0.047   0.000  -0.000  -0.000
  0.000  -0.000  -0.022   0.000   0.004   0.099  -0.003   0.059  -0.000  -0.000   0.000   0.005  -0.052   0.000   0.000  -0.000
 -0.000  -0.000   0.007   0.000   0.060  -0.003   7.096  -1.280  -0.000   0.000   0.000  -4.982   1.805   0.000  -0.000  -0.000
  0.000   0.008  -0.000  -0.000   0.055   0.059  -1.280   6.414   0.000   0.000   0.000   1.805  -3.842  -0.000  -0.000  -0.000
 -0.003   0.000  -0.000  -0.024  -0.000  -0.000  -0.000   0.000   6.400   1.498   0.444   0.000  -0.000  -3.853  -2.001  -0.606
 -0.000  -0.000   0.000   0.065   0.000  -0.000   0.000   0.000   1.498   7.487   0.631  -0.000  -0.000  -2.003  -5.318  -0.888
 -0.007   0.000  -0.000  -0.085   0.000   0.000   0.000   0.000   0.444   0.631   5.677  -0.000  -0.000  -0.604  -0.885  -2.823
  0.000   0.000  -0.007  -0.000  -0.051   0.005  -4.982   1.805   0.000  -0.000  -0.000   4.389  -1.972  -0.000   0.000   0.000
 -0.000  -0.008   0.000   0.000  -0.047  -0.052   1.805  -3.842  -0.000  -0.000  -0.000  -1.972   3.083   0.000  -0.000  -0.000
  0.003  -0.000   0.000   0.020   0.000   0.000   0.000  -0.000  -3.853  -2.003  -0.604  -0.000   0.000   3.125   2.169   0.663
  0.000   0.000  -0.000  -0.057  -0.000   0.000  -0.000  -0.000  -2.001  -5.318  -0.885   0.000  -0.000   2.169   4.709   0.980
  0.007  -0.000   0.000   0.075  -0.000  -0.000  -0.000  -0.000  -0.606  -0.888  -2.823   0.000  -0.000   0.663   0.980   1.966
 -0.003   0.000  -0.000  -0.013  -0.000  -0.000  -0.000   0.000  -0.204  -0.075  -0.014   0.000  -0.000   0.175   0.092   0.016
  0.001  -0.000   0.000   0.002   0.000   0.000   0.000  -0.000   0.018  -0.001   0.002  -0.000   0.000  -0.014  -0.003   0.000
 total augmentation occupancy for first ion, spin component:           2
 -0.001   0.000   0.000  -0.006   0.000   0.000  -0.000  -0.000  -0.000  -0.000  -0.000   0.000   0.000   0.000   0.000   0.000
  0.000  -0.001  -0.000   0.000  -0.006  -0.000  -0.000   0.001   0.000   0.000  -0.000   0.000  -0.001  -0.000  -0.000   0.000
  0.000  -0.000  -0.001   0.000  -0.000  -0.006   0.001  -0.000  -0.000  -0.000   0.000  -0.001   0.000   0.000   0.000  -0.000
 -0.006   0.000   0.000   0.002  -0.000  -0.000  -0.000   0.000   0.006   0.011  -0.001   0.000  -0.000  -0.004  -0.008   0.001
  0.000  -0.006  -0.000  -0.000   0.002  -0.000   0.007  -0.005  -0.000  -0.000  -0.000  -0.006   0.002   0.000   0.000   0.000
  0.000  -0.000  -0.006  -0.000  -0.000   0.002  -0.019   0.015   0.000   0.000   0.000   0.012  -0.010  -0.000  -0.000  -0.000
 -0.000  -0.000   0.001  -0.000   0.007  -0.019   4.465  -2.390   0.000  -0.000  -0.000  -2.753   1.467   0.000   0.000   0.000
 -0.000   0.001  -0.000   0.000  -0.005   0.015  -2.390   2.505  -0.000   0.000   0.000   1.467  -1.548   0.000  -0.000  -0.000
 -0.000   0.000  -0.000   0.006  -0.000   0.000   0.000  -0.000   2.531   2.453   0.735  -0.000   0.000  -1.584  -1.538  -0.460
 -0.000   0.000  -0.000   0.011  -0.000   0.000  -0.000   0.000   2.453   4.465   1.153   0.000  -0.000  -1.539  -2.799  -0.720
 -0.000  -0.000   0.000  -0.001  -0.000   0.000  -0.000   0.000   0.735   1.153   1.313   0.000  -0.000  -0.462  -0.722  -0.822
  0.000   0.000  -0.001   0.000  -0.006   0.012  -2.753   1.467  -0.000   0.000   0.000   1.632  -0.915  -0.000  -0.000  -0.000
  0.000  -0.001   0.000  -0.000   0.002  -0.010   1.467  -1.548   0.000  -0.000  -0.000  -0.915   0.882  -0.000   0.000   0.000
  0.000  -0.000   0.000  -0.004   0.000  -0.000   0.000   0.000  -1.584  -1.539  -0.462  -0.000  -0.000   0.913   0.976   0.293
  0.000  -0.000   0.000  -0.008   0.000  -0.000   0.000  -0.000  -1.538  -2.799  -0.722  -0.000   0.000   0.976   1.688   0.455
  0.000   0.000  -0.000   0.001   0.000  -0.000   0.000  -0.000  -0.460  -0.720  -0.822  -0.000   0.000   0.293   0.455   0.433
 -0.001   0.000   0.000   0.000  -0.000   0.000  -0.000   0.000  -0.048  -0.050  -0.018   0.000  -0.000   0.031   0.029   0.009
  0.000  -0.000  -0.000  -0.000   0.000  -0.000   0.000  -0.000   0.001  -0.002   0.003  -0.000   0.000  -0.001   0.001  -0.001


------------------------ aborting loop because EDIFF is reached ----------------------------------------


 


 total charge     
 
# of ion       s       p       d       tot
------------------------------------------
    1        0.214   6.200   7.845  14.258
    2        0.214   6.200   7.845  14.259
    3        0.214   6.200   7.845  14.259
    4        0.214   6.200   7.845  14.259
    5        1.569   3.476   0.000   5.045
    6        1.569   3.476   0.000   5.045
    7        1.569   3.476   0.000   5.045
    8        1.569   3.476   0.000   5.045
    9        1.569   3.476   0.000   5.045
   10        1.569   3.476   0.000   5.045
   11        1.569   3.476   0.000   5.045
   12        1.569   3.476   0.000   5.045
   13        1.574   3.460   0.000   5.034
   14        1.574   3.460   0.000   5.034
   15        1.574   3.460   0.000   5.034
   16        1.574   3.460   0.000   5.034
   17        1.574   3.460   0.000   5.034
   18        1.574   3.460   0.000   5.034
   19        1.574   3.460   0.000   5.034
   20        1.574   3.460   0.000   5.034
   21        0.697   1.017   4.088   5.802
   22        0.697   1.017   4.088   5.802
   23        0.697   1.017   4.088   5.802
   24        0.697   1.017   4.088   5.802
--------------------------------------------------
tot         28.784  84.358  47.733 160.875
 


 magnetization (x)
 
# of ion       s       p       d       tot
------------------------------------------
    1        0.004   0.003   1.499   1.506
    2        0.004   0.003   1.499   1.506
    3        0.004   0.003   1.499   1.506
    4        0.004   0.003   1.499   1.506
    5        0.007   0.060   0.000   0.067
    6        0.007   0.060   0.000   0.067
    7        0.007   0.060   0.000   0.067
    8        0.007   0.060   0.000   0.067
    9        0.007   0.060   0.000   0.067
   10        0.007   0.060   0.000   0.067
   11        0.007   0.060   0.000   0.067
   12        0.007   0.060   0.000   0.067
   13        0.012   0.091   0.000   0.103
   14        0.012   0.091   0.000   0.103
   15        0.012   0.091   0.000   0.103
   16        0.012   0.091   0.000   0.103
   17        0.012   0.091   0.000   0.103
   18        0.012   0.091   0.000   0.103
   19        0.012   0.091   0.000   0.103
   20        0.012   0.091   0.000   0.103
   21        0.006   0.010   0.096   0.112
   22        0.006   0.010   0.096   0.112
   23        0.006   0.010   0.096   0.112
   24        0.006   0.010   0.096   0.112
--------------------------------------------------
tot          0.187   1.260   6.381   7.828
 
    CHARGE:  cpu time    0.4837: real time    0.4838
    FORLOC:  cpu time    0.0018: real time    0.0018
    FORNL :  cpu time    3.0142: real time    3.0170
    STRESS:  cpu time    9.0907: real time    9.0954
    FORCOR:  cpu time    0.0189: real time    0.0190
    FORHAR:  cpu time    0.0037: real time    0.0037
    MIXING:  cpu time    0.0020: real time    0.0020
    OFIELD:  cpu time    0.0001: real time    0.0001

  FORCE on cell =-STRESS in cart. coord.  units (eV):
  Direction    XX          YY          ZZ          XY          YZ          ZX
  --------------------------------------------------------------------------------------
  Alpha Z   928.37526   928.37526   928.37526
  Ewald   -5321.62645 -4861.02062 -3551.67070     0.00000     0.00001    48.22594
  Hartree  1961.67539  2315.55290  3307.88372     0.00028    -0.00005     4.79845
  E(xc)   -1063.89675 -1062.37846 -1063.16407    -0.00001     0.00000    -0.46091
  Local     112.97250  -692.62119 -2969.96490    -0.00062     0.00006   -50.90026
  n-local  -747.10013  -750.95352  -740.04741     0.00003    -0.00006     0.97518
  augment   842.56189   843.23595   839.34462    -0.00008     0.00016     0.28424
  Kinetic  3289.31814  3283.67713  3253.47018    -0.00006     0.00008    -1.85587
  Fock        0.00000     0.00000     0.00000     0.00000     0.00000     0.00000
  -------------------------------------------------------------------------------------
  Total       2.27985     3.86745     4.22670    -0.00045     0.00021     1.06677
  in kB      14.42457    24.46929    26.74224    -0.00285     0.00133     6.74943
  external pressure =       21.88 kB  Pullay stress =        0.00 kB


 VOLUME and BASIS-vectors are now :
 -----------------------------------------------------------------------------
  energy-cutoff  :      500.00
  volume of cell :      253.23
      direct lattice vectors                 reciprocal lattice vectors
     9.097361565  0.000000000  0.000000000     0.109921980  0.000000000  0.001282083
     0.000000000  5.635251999  0.000000000     0.000000000  0.177454353  0.000000000
    -0.057612598  0.000000000  4.939531047     0.000000000  0.000000000  0.202448368

  length of vectors
     9.097361565  5.635251999  4.939867020     0.109929457  0.177454353  0.202448368


 FORCES acting on ions
    electron-ion (+dipol)            ewald-force                    non-local-force                 convergence-correction
 -----------------------------------------------------------------------------------------------
   0.211E-03 -.263E+03 -.121E-03   -.118E-03 0.264E+03 -.292E-05   0.369E-04 -.739E+00 -.169E-04   -.137E-03 0.159E-02 0.112E-03
   0.157E-04 -.263E+03 -.133E-03   0.499E-04 0.264E+03 0.530E-05   0.292E-04 -.738E+00 -.188E-04   -.897E-04 -.413E-02 0.970E-04
   0.170E-03 0.263E+03 0.151E-03   -.149E-03 -.264E+03 -.327E-04   -.415E-04 0.739E+00 0.338E-05   0.277E-04 0.743E-02 -.919E-04
   -.799E-04 0.263E+03 0.154E-03   0.193E-04 -.264E+03 -.245E-04   -.442E-04 0.739E+00 0.111E-04   0.109E-03 0.730E-03 -.105E-03
   0.644E+02 0.116E+03 -.416E+02   -.517E+02 -.115E+03 0.351E+02   -.129E+02 -.166E+01 0.666E+01   0.726E-02 0.261E-02 -.137E-02
   0.644E+02 0.116E+03 -.415E+02   -.517E+02 -.115E+03 0.351E+02   -.129E+02 -.166E+01 0.666E+01   0.833E-02 0.695E-02 -.475E-02
   -.644E+02 -.116E+03 0.415E+02   0.517E+02 0.115E+03 -.351E+02   0.129E+02 0.166E+01 -.666E+01   -.128E-01 -.930E-02 0.619E-02
   -.644E+02 -.116E+03 0.416E+02   0.517E+02 0.115E+03 -.351E+02   0.129E+02 0.166E+01 -.666E+01   -.476E-02 -.389E-02 0.220E-02
   -.644E+02 0.116E+03 0.416E+02   0.517E+02 -.115E+03 -.351E+02   0.129E+02 -.166E+01 -.666E+01   -.732E-02 0.263E-02 0.135E-02
   -.644E+02 0.116E+03 0.415E+02   0.517E+02 -.115E+03 -.351E+02   0.129E+02 -.166E+01 -.666E+01   -.834E-02 0.696E-02 0.475E-02
   0.644E+02 -.116E+03 -.415E+02   -.517E+02 0.115E+03 0.351E+02   -.129E+02 0.166E+01 0.666E+01   0.128E-01 -.931E-02 -.618E-02
   0.644E+02 -.116E+03 -.416E+02   -.517E+02 0.115E+03 0.351E+02   -.129E+02 0.166E+01 0.666E+01   0.482E-02 -.392E-02 -.220E-02
   0.196E+03 0.117E+03 0.596E+02   -.190E+03 -.107E+03 -.540E+02   -.643E+01 -.100E+02 -.587E+01   0.100E-01 0.895E-02 -.184E-02
   0.196E+03 0.117E+03 0.596E+02   -.190E+03 -.107E+03 -.540E+02   -.643E+01 -.100E+02 -.587E+01   0.703E-02 0.284E-02 0.558E-02
   -.196E+03 -.117E+03 -.596E+02   0.190E+03 0.107E+03 0.540E+02   0.643E+01 0.100E+02 0.587E+01   -.106E-01 -.137E-02 -.834E-02
   -.196E+03 -.117E+03 -.596E+02   0.190E+03 0.107E+03 0.540E+02   0.643E+01 0.100E+02 0.587E+01   -.667E-02 -.648E-02 -.224E-03
   -.196E+03 0.117E+03 -.596E+02   0.190E+03 -.107E+03 0.540E+02   0.643E+01 -.100E+02 0.587E+01   -.100E-01 0.898E-02 0.188E-02
   -.196E+03 0.117E+03 -.596E+02   0.190E+03 -.107E+03 0.540E+02   0.643E+01 -.100E+02 0.587E+01   -.701E-02 0.286E-02 -.555E-02
   0.196E+03 -.117E+03 0.596E+02   -.190E+03 0.107E+03 -.540E+02   -.643E+01 0.100E+02 -.587E+01   0.106E-01 -.140E-02 0.830E-02
   0.196E+03 -.117E+03 0.596E+02   -.190E+03 0.107E+03 -.540E+02   -.643E+01 0.100E+02 -.587E+01   0.668E-02 -.650E-02 0.197E-03
   -.187E-02 0.465E+02 0.396E-03   -.221E-04 -.460E+02 -.298E-05   0.107E-03 0.614E-01 -.166E-04   0.181E-02 0.151E-02 -.274E-03
   0.191E-02 0.465E+02 -.455E-03   -.352E-04 -.460E+02 0.125E-05   -.112E-03 0.614E-01 0.398E-04   -.181E-02 0.151E-02 0.348E-03
   -.241E-02 -.465E+02 -.378E-03   -.900E-05 0.460E+02 -.145E-04   0.164E-03 -.614E-01 -.572E-06   0.239E-02 -.185E-02 0.290E-03
   0.243E-02 -.465E+02 0.457E-03   -.221E-04 0.460E+02 -.103E-04   -.165E-03 -.614E-01 -.209E-04   -.239E-02 -.186E-02 -.358E-03
 -----------------------------------------------------------------------------------------------
   0.153E-03 -.493E-02 0.481E-05   0.441E-12 -.121E-12 0.161E-13   -.714E-04 -.654E-03 -.313E-04   -.946E-04 0.553E-02 0.210E-04
 
 
 POSITION                                       TOTAL-FORCE (eV/Angst)
 -----------------------------------------------------------------------------------
      2.25994      3.66429      1.23488        -0.000007      0.023101     -0.000028
      6.80862      3.66429      1.23488         0.000006      0.023274     -0.000049
      2.23113      1.97096      3.70465         0.000008     -0.023184      0.000030
      6.77981      1.97096      3.70465         0.000004     -0.023142      0.000036
      0.97580      0.63776      4.57359        -0.302212     -0.147308      0.255749
      5.52448      0.63776      4.57359        -0.301621     -0.147032      0.255499
      3.51526      4.99749      0.36594         0.302103      0.147168     -0.255768
      8.06394      4.99749      0.36594         0.301918      0.147428     -0.255741
      3.48646      0.63776      2.83571         0.302224     -0.147317     -0.255737
      8.03514      0.63776      2.83571         0.301630     -0.147038     -0.255490
      1.00461      4.99749      2.10383        -0.302111      0.147176      0.255757
      5.55329      4.99749      2.10383        -0.301936      0.147449      0.255733
      1.18504      2.13291      2.02451        -0.473226     -0.322992     -0.303364
      5.73372      2.13291      2.02451        -0.472639     -0.323035     -0.302816
      3.30602      3.50234      2.91502         0.473151      0.323153      0.303159
      7.85470      3.50234      2.91502         0.472762      0.322634      0.303395
      3.33483      2.13291      0.44526         0.473225     -0.322994      0.303374
      7.88351      2.13291      0.44526         0.472638     -0.323040      0.302828
      1.15624      3.50234      4.49428        -0.473145      0.323155     -0.303165
      5.70492      3.50234      4.49428        -0.472754      0.322632     -0.303405
     -0.01440      0.97369      1.23488         0.000029      0.504071      0.000103
      4.53428      0.97369      1.23488        -0.000044      0.504069     -0.000066
     -0.04321      4.66156      3.70465         0.000145     -0.504114     -0.000103
      4.50547      4.66156      3.70465        -0.000147     -0.504114      0.000069
 -----------------------------------------------------------------------------------
    total drift:                               -0.000013     -0.000050     -0.000005


--------------------------------------------------------------------------------------------------------



  FREE ENERGIE OF THE ION-ELECTRON SYSTEM (eV)
  ---------------------------------------------------
  free  energy   TOTEN  =      -191.95346797 eV

  energy  without entropy=     -191.95346797  energy(sigma->0) =     -191.95346797
 


--------------------------------------------------------------------------------------------------------


    POTLOK:  cpu time    0.0229: real time    0.0229


--------------------------------------------------------------------------------------------------------


 writing wavefunctions
     LOOP+:  cpu time  496.8896: real time  497.1135
    4ORBIT:  cpu time    0.0000: real time    0.0000
 


 total charge     
 
# of ion       s       p       d       tot
------------------------------------------
    1        0.214   6.200   7.845  14.258
    2        0.214   6.200   7.845  14.259
    3        0.214   6.200   7.845  14.259
    4        0.214   6.200   7.845  14.259
    5        1.569   3.476   0.000   5.045
    6        1.569   3.476   0.000   5.045
    7        1.569   3.476   0.000   5.045
    8        1.569   3.476   0.000   5.045
    9        1.569   3.476   0.000   5.045
   10        1.569   3.476   0.000   5.045
   11        1.569   3.476   0.000   5.045
   12        1.569   3.476   0.000   5.045
   13        1.574   3.460   0.000   5.034
   14        1.574   3.460   0.000   5.034
   15        1.574   3.460   0.000   5.034
   16        1.574   3.460   0.000   5.034
   17        1.574   3.460   0.000   5.034
   18        1.574   3.460   0.000   5.034
   19        1.574   3.460   0.000   5.034
   20        1.574   3.460   0.000   5.034
   21        0.697   1.017   4.088   5.802
   22        0.697   1.017   4.088   5.802
   23        0.697   1.017   4.088   5.802
   24        0.697   1.017   4.088   5.802
--------------------------------------------------
tot         28.784  84.358  47.733 160.875
 


 magnetization (x)
 
# of ion       s       p       d       tot
------------------------------------------
    1        0.004   0.003   1.499   1.506
    2        0.004   0.003   1.499   1.506
    3        0.004   0.003   1.499   1.506
    4        0.004   0.003   1.499   1.506
    5        0.007   0.060   0.000   0.067
    6        0.007   0.060   0.000   0.067
    7        0.007   0.060   0.000   0.067
    8        0.007   0.060   0.000   0.067
    9        0.007   0.060   0.000   0.067
   10        0.007   0.060   0.000   0.067
   11        0.007   0.060   0.000   0.067
   12        0.007   0.060   0.000   0.067
   13        0.012   0.091   0.000   0.103
   14        0.012   0.091   0.000   0.103
   15        0.012   0.091   0.000   0.103
   16        0.012   0.091   0.000   0.103
   17        0.012   0.091   0.000   0.103
   18        0.012   0.091   0.000   0.103
   19        0.012   0.091   0.000   0.103
   20        0.012   0.091   0.000   0.103
   21        0.006   0.010   0.096   0.112
   22        0.006   0.010   0.096   0.112
   23        0.006   0.010   0.096   0.112
   24        0.006   0.010   0.096   0.112
--------------------------------------------------
tot          0.187   1.260   6.381   7.828
 
 BZINTS: Fermi energy:  4.414454;184.000000 electrons
         Band energy:***********;  BLOECHL correction:  0.000000

 total amount of memory used by VASP MPI-rank0   146492. kBytes
=======================================================================

   base      :      30000. kBytes
   nonlr-proj:       2221. kBytes
   fftplans  :        836. kBytes
   grid      :       2243. kBytes
   one-center:        186. kBytes
   wavefun   :     111006. kBytes
 
  
  
 General timing and accounting informations for this job:
 ========================================================
  
                  Total CPU time used (sec):      523.618
                            User time (sec):      512.625
                          System time (sec):       10.992
                         Elapsed time (sec):      523.859
  
                   Maximum memory used (kb):      225368.
                   Average memory used (kb):           0.
  
                          Minor page faults:      1596997
                          Major page faults:            0
                 Voluntary context switches:          210
