   24   24    1    2
  0.1081779E+02  0.9183533E-09  0.5705387E-09  0.4955129E-09  0.5000000E-15
  1.000000000000000E-004
  CAR 
 NiWO4                                   
    184    240    120
 
  0.5000000E+00  0.0000000E+00  0.0000000E+00  0.4166667E-02
    1      -60.841477    -58.687997   1.000000   1.000000
    2      -60.841142    -58.687653   1.000000   1.000000
    3      -60.836051    -58.681140   1.000000   1.000000
    4      -60.835708    -58.680798   1.000000   1.000000
    5      -60.817834    -58.673060   1.000000   1.000000
    6      -60.817462    -58.672726   1.000000   1.000000
    7      -60.817208    -58.671256   1.000000   1.000000
    8      -60.816763    -58.670889   1.000000   1.000000
    9      -60.816144    -58.670473   1.000000   1.000000
   10      -60.815707    -58.670074   1.000000   1.000000
   11      -60.814024    -58.669731   1.000000   1.000000
   12      -60.813633    -58.669360   1.000000   1.000000
   13      -15.380425    -15.315611   1.000000   1.000000
   14      -15.380330    -15.315515   1.000000   1.000000
   15      -14.391233    -14.302820   1.000000   1.000000
   16      -14.391127    -14.302697   1.000000   1.000000
   17      -14.331472    -14.233031   1.000000   1.000000
   18      -14.331363    -14.232941   1.000000   1.000000
   19      -14.185159    -14.077400   1.000000   1.000000
   20      -14.185021    -14.077315   1.000000   1.000000
   21      -14.036202    -13.920987   1.000000   1.000000
   22      -14.035976    -13.920733   1.000000   1.000000
   23      -13.890241    -13.775910   1.000000   1.000000
   24      -13.890225    -13.775821   1.000000   1.000000
   25      -13.641067    -13.556034   1.000000   1.000000
   26      -13.640969    -13.555974   1.000000   1.000000
   27      -13.593736    -13.526936   1.000000   1.000000
   28      -13.593630    -13.526834   1.000000   1.000000
   29       -3.341191     -3.020338   1.000000   1.000000
   30       -3.341041     -3.020259   1.000000   1.000000
   31       -3.163167     -2.818891   1.000000   1.000000
   32       -3.163113     -2.818841   1.000000   1.000000
   33       -3.054635     -2.587480   1.000000   1.000000
   34       -3.054508     -2.587274   1.000000   1.000000
   35       -2.978257     -2.236064   1.000000   1.000000
   36       -2.978152     -2.235860   1.000000   1.000000
   37       -2.863367     -2.227501   1.000000   1.000000
   38       -2.863249     -2.227348   1.000000   1.000000
   39       -2.847358     -1.500494   1.000000   1.000000
   40       -2.847220     -1.500339   1.000000   1.000000
   41       -2.444238     -1.390502   1.000000   1.000000
   42       -2.444137     -1.390403   1.000000   1.000000
   43       -2.063194     -1.157372   1.000000   1.000000
   44       -2.062964     -1.157266   1.000000   1.000000
   45       -1.871695     -1.140709   1.000000   1.000000
   46       -1.871542     -1.140351   1.000000   1.000000
   47       -1.536910     -0.925314   1.000000   1.000000
   48       -1.536836     -0.925170   1.000000   1.000000
   49       -1.486107     -0.860051   1.000000   1.000000
   50       -1.485826     -0.859704   1.000000   1.000000
   51       -1.292228     -0.232234   1.000000   1.000000
   52       -1.292086     -0.231904   1.000000   1.000000
   53       -1.219571     -0.164994   1.000000   1.000000
   54       -1.219421     -0.164890   1.000000   1.000000
   55       -0.789618     -0.027369   1.000000   1.000000
   56       -0.789299     -0.027242   1.000000   1.000000
   57       -0.563319      0.511383   1.000000   1.000000
   58       -0.563086      0.511443   1.000000   1.000000
   59       -0.526252      0.580760   1.000000   1.000000
   60       -0.526116      0.580984   1.000000   1.000000
   61       -0.325909      0.614329   1.000000   1.000000
   62       -0.325691      0.614653   1.000000   1.000000
   63       -0.277469      0.788562   1.000000   1.000000
   64       -0.277326      0.788658   1.000000   1.000000
   65       -0.097754      0.808265   1.000000   1.000000
   66       -0.097742      0.808396   1.000000   1.000000
   67        0.043285      1.071244   1.000000   1.000000
   68        0.043459      1.071454   1.000000   1.000000
   69        0.369903      1.182745   1.000000   1.000000
   70        0.370040      1.182939   1.000000   1.000000
   71        0.659448      1.275557   1.000000   1.000000
   72        0.659577      1.275578   1.000000   1.000000
   73        0.664598      1.480864   1.000000   1.000000
   74        0.664693      1.481172   1.000000   1.000000
   75        1.008492      1.527259   1.000000   1.000000
   76        1.008690      1.527386   1.000000   1.000000
   77        1.056957      1.743688   1.000000   1.000000
   78        1.057157      1.743960   1.000000   1.000000
   79        1.228575      1.857331   1.000000   1.000000
   80        1.228799      1.857431   1.000000   1.000000
   81        1.673572      1.941135   1.000000   1.000000
   82        1.673655      1.941207   1.000000   1.000000
   83        1.903523      2.261808   1.000000   1.000000
   84        1.903959      2.262072   1.000000   1.000000
   85        1.911825      2.469594   1.000000   1.000000
   86        1.911966      2.469872   1.000000   1.000000
   87        2.120910      2.718817   1.000000   1.000000
   88        2.120968      2.718930   1.000000   1.000000
   89        2.355731      5.486652   1.000000   0.000000
   90        2.355764      5.486782   1.000000   0.000000
   91        2.379567      5.963063   1.000000   0.000000
   92        2.379700      5.963231   1.000000   0.000000
   93        2.686819      6.236082   1.000000   0.000000
   94        2.686984      6.236362   1.000000   0.000000
   95        2.768245      6.254741   1.000000   0.000000
   96        2.768418      6.254987   1.000000   0.000000
   97        6.019417      6.533642   0.000000   0.000000
   98        6.019587      6.533765   0.000000   0.000000
   99        6.165105      6.915343   0.000000   0.000000
  100        6.165434      6.915564   0.000000   0.000000
  101        6.247829      7.436769   0.000000   0.000000
  102        6.248140      7.436919   0.000000   0.000000
  103        6.532650      7.690339   0.000000   0.000000
  104        6.532783      7.690412   0.000000   0.000000
  105        7.074237      7.954924   0.000000   0.000000
  106        7.074685      7.954928   0.000000   0.000000
  107        7.218516      8.109665   0.000000   0.000000
  108        7.218709      8.109970   0.000000   0.000000
  109        9.978634     10.070694   0.000000   0.000000
  110        9.979027     10.071065   0.000000   0.000000
  111        9.984861     10.135204   0.000000   0.000000
  112        9.985586     10.135890   0.000000   0.000000
  113       10.595978     10.707506   0.000000   0.000000
  114       10.596444     10.708015   0.000000   0.000000
  115       11.002580     11.148538   0.000000   0.000000
  116       11.002973     11.148937   0.000000   0.000000
  117       11.605466     11.674704   0.000000   0.000000
  118       11.606175     11.675405   0.000000   0.000000
  119       13.249531     13.405202   0.000000   0.000000
  120       13.249567     13.405434   0.000000   0.000000
 
  0.4827586E+00  0.0000000E+00  0.0000000E+00  0.4166667E-02
    1      -60.841470    -58.687989   1.000000   1.000000
    2      -60.841135    -58.687646   1.000000   1.000000
    3      -60.836041    -58.681125   1.000000   1.000000
    4      -60.835697    -58.680783   1.000000   1.000000
    5      -60.817840    -58.673060   1.000000   1.000000
    6      -60.817467    -58.672725   1.000000   1.000000
    7      -60.817212    -58.671247   1.000000   1.000000
    8      -60.816767    -58.670881   1.000000   1.000000
    9      -60.816148    -58.670472   1.000000   1.000000
   10      -60.815711    -58.670071   1.000000   1.000000
   11      -60.814023    -58.669730   1.000000   1.000000
   12      -60.813631    -58.669358   1.000000   1.000000
   13      -15.391671    -15.326801   1.000000   1.000000
   14      -15.368828    -15.304077   1.000000   1.000000
   15      -14.399844    -14.311349   1.000000   1.000000
   16      -14.382745    -14.294397   1.000000   1.000000
   17      -14.331862    -14.235195   1.000000   1.000000
   18      -14.330983    -14.230805   1.000000   1.000000
   19      -14.188710    -14.080467   1.000000   1.000000
   20      -14.181450    -14.074173   1.000000   1.000000
   21      -14.037585    -13.922476   1.000000   1.000000
   22      -14.034620    -13.919266   1.000000   1.000000
   23      -13.893824    -13.780116   1.000000   1.000000
   24      -13.886680    -13.771680   1.000000   1.000000
   25      -13.642726    -13.558746   1.000000   1.000000
   26      -13.639316    -13.553269   1.000000   1.000000
   27      -13.601999    -13.535336   1.000000   1.000000
   28      -13.585334    -13.518400   1.000000   1.000000
   29       -3.347165     -3.036023   1.000000   1.000000
   30       -3.334583     -3.004210   1.000000   1.000000
   31       -3.181079     -2.826480   1.000000   1.000000
   32       -3.144814     -2.811125   1.000000   1.000000
   33       -3.061418     -2.599401   1.000000   1.000000
   34       -3.047720     -2.575164   1.000000   1.000000
   35       -2.981251     -2.253972   1.000000   1.000000
   36       -2.974904     -2.230747   1.000000   1.000000
   37       -2.864816     -2.223747   1.000000   1.000000
   38       -2.861684     -2.218209   1.000000   1.000000
   39       -2.850587     -1.514649   1.000000   1.000000
   40       -2.843862     -1.486616   1.000000   1.000000
   41       -2.446970     -1.400251   1.000000   1.000000
   42       -2.442073     -1.381963   1.000000   1.000000
   43       -2.091823     -1.178599   1.000000   1.000000
   44       -2.034211     -1.140665   1.000000   1.000000
   45       -1.899168     -1.138901   1.000000   1.000000
   46       -1.843458     -1.136709   1.000000   1.000000
   47       -1.542962     -0.939544   1.000000   1.000000
   48       -1.534067     -0.909508   1.000000   1.000000
   49       -1.506991     -0.865120   1.000000   1.000000
   50       -1.467050     -0.854951   1.000000   1.000000
   51       -1.294521     -0.236740   1.000000   1.000000
   52       -1.287213     -0.226202   1.000000   1.000000
   53       -1.222874     -0.168507   1.000000   1.000000
   54       -1.211860     -0.161604   1.000000   1.000000
   55       -0.800789     -0.037758   1.000000   1.000000
   56       -0.778679     -0.016980   1.000000   1.000000
   57       -0.569641      0.510429   1.000000   1.000000
   58       -0.556882      0.512062   1.000000   1.000000
   59       -0.526394      0.574466   1.000000   1.000000
   60       -0.526138      0.587209   1.000000   1.000000
   61       -0.326152      0.602138   1.000000   1.000000
   62       -0.325497      0.625840   1.000000   1.000000
   63       -0.286483      0.785690   1.000000   1.000000
   64       -0.269261      0.790743   1.000000   1.000000
   65       -0.102471      0.804970   1.000000   1.000000
   66       -0.091614      0.812378   1.000000   1.000000
   67        0.034206      1.056130   1.000000   1.000000
   68        0.051656      1.087265   1.000000   1.000000
   69        0.358815      1.175912   1.000000   1.000000
   70        0.380505      1.189208   1.000000   1.000000
   71        0.649820      1.254501   1.000000   1.000000
   72        0.655444      1.296163   1.000000   1.000000
   73        0.663947      1.468561   1.000000   1.000000
   74        0.679092      1.492604   1.000000   1.000000
   75        1.005582      1.516886   1.000000   1.000000
   76        1.011266      1.537999   1.000000   1.000000
   77        1.054895      1.732143   1.000000   1.000000
   78        1.057527      1.755868   1.000000   1.000000
   79        1.223070      1.856087   1.000000   1.000000
   80        1.234785      1.857265   1.000000   1.000000
   81        1.666792      1.941396   1.000000   1.000000
   82        1.680471      1.941899   1.000000   1.000000
   83        1.880802      2.254794   1.000000   1.000000
   84        1.900747      2.269031   1.000000   1.000000
   85        1.922526      2.460996   1.000000   1.000000
   86        1.926320      2.479269   1.000000   1.000000
   87        2.104517      2.713286   1.000000   1.000000
   88        2.139519      2.724497   1.000000   1.000000
   89        2.340060      5.475991   1.000000   0.000000
   90        2.370666      5.497614   1.000000   0.000000
   91        2.371405      5.958197   1.000000   0.000000
   92        2.388270      5.968391   1.000000   0.000000
   93        2.676786      6.228015   1.000000   0.000000
   94        2.697250      6.244150   1.000000   0.000000
   95        2.762920      6.249448   1.000000   0.000000
   96        2.773512      6.260163   1.000000   0.000000
   97        6.014842      6.527813   0.000000   0.000000
   98        6.024176      6.539566   0.000000   0.000000
   99        6.159825      6.907895   0.000000   0.000000
  100        6.170762      6.923302   0.000000   0.000000
  101        6.242959      7.428386   0.000000   0.000000
  102        6.253028      7.445620   0.000000   0.000000
  103        6.532026      7.683078   0.000000   0.000000
  104        6.533571      7.697113   0.000000   0.000000
  105        7.062797      7.947938   0.000000   0.000000
  106        7.085882      7.962326   0.000000   0.000000
  107        7.214603      8.104770   0.000000   0.000000
  108        7.222482      8.114481   0.000000   0.000000
  109        9.943507     10.067349   0.000000   0.000000
  110        9.977285     10.074727   0.000000   0.000000
  111        9.980706     10.092075   0.000000   0.000000
  112       10.026494     10.178716   0.000000   0.000000
  113       10.596707     10.708240   0.000000   0.000000
  114       10.597354     10.708746   0.000000   0.000000
  115       10.999379     11.143513   0.000000   0.000000
  116       11.005482     11.153371   0.000000   0.000000
  117       11.593196     11.662630   0.000000   0.000000
  118       11.618113     11.687131   0.000000   0.000000
  119       13.204427     13.360714   0.000000   0.000000
  120       13.294456     13.449403   0.000000   0.000000
 
  0.4655172E+00  0.0000000E+00  0.0000000E+00  0.4166667E-02
    1      -60.841490    -58.688008   1.000000   1.000000
    2      -60.841155    -58.687665   1.000000   1.000000
    3      -60.836066    -58.681150   1.000000   1.000000
    4      -60.835723    -58.680807   1.000000   1.000000
    5      -60.817838    -58.673055   1.000000   1.000000
    6      -60.817466    -58.672721   1.000000   1.000000
    7      -60.817216    -58.671255   1.000000   1.000000
    8      -60.816771    -58.670888   1.000000   1.000000
    9      -60.816145    -58.670473   1.000000   1.000000
   10      -60.815709    -58.670072   1.000000   1.000000
   11      -60.814027    -58.669735   1.000000   1.000000
   12      -60.813632    -58.669360   1.000000   1.000000
   13      -15.402651    -15.337732   1.000000   1.000000
   14      -15.357079    -15.292397   1.000000   1.000000
   15      -14.408762    -14.320189   1.000000   1.000000
   16      -14.374565    -14.286287   1.000000   1.000000
   17      -14.332274    -14.237371   1.000000   1.000000
   18      -14.330528    -14.228622   1.000000   1.000000
   19      -14.192266    -14.083487   1.000000   1.000000
   20      -14.177803    -14.070925   1.000000   1.000000
   21      -14.039097    -13.924102   1.000000   1.000000
   22      -14.033230    -13.917750   1.000000   1.000000
   23      -13.897477    -13.784468   1.000000   1.000000
   24      -13.883206    -13.767605   1.000000   1.000000
   25      -13.644454    -13.561516   1.000000   1.000000
   26      -13.637647    -13.550571   1.000000   1.000000
   27      -13.610281    -13.543756   1.000000   1.000000
   28      -13.576969    -13.509894   1.000000   1.000000
   29       -3.352823     -3.051368   1.000000   1.000000
   30       -3.327649     -2.987770   1.000000   1.000000
   31       -3.198589     -2.833947   1.000000   1.000000
   32       -3.126153     -2.803275   1.000000   1.000000
   33       -3.068228     -2.611210   1.000000   1.000000
   34       -3.040904     -2.562774   1.000000   1.000000
   35       -2.984092     -2.272075   1.000000   1.000000
   36       -2.971344     -2.233702   1.000000   1.000000
   37       -2.866301     -2.219709   1.000000   1.000000
   38       -2.860066     -2.200947   1.000000   1.000000
   39       -2.853772     -1.528988   1.000000   1.000000
   40       -2.840304     -1.473528   1.000000   1.000000
   41       -2.450534     -1.411232   1.000000   1.000000
   42       -2.440491     -1.374915   1.000000   1.000000
   43       -2.120344     -1.200385   1.000000   1.000000
   44       -2.005455     -1.139416   1.000000   1.000000
   45       -1.925850     -1.135684   1.000000   1.000000
   46       -1.815040     -1.116921   1.000000   1.000000
   47       -1.552464     -0.952351   1.000000   1.000000
   48       -1.534046     -0.892399   1.000000   1.000000
   49       -1.529524     -0.870605   1.000000   1.000000
   50       -1.450738     -0.850414   1.000000   1.000000
   51       -1.294722     -0.240154   1.000000   1.000000
   52       -1.279348     -0.219203   1.000000   1.000000
   53       -1.221975     -0.172318   1.000000   1.000000
   54       -1.200257     -0.158527   1.000000   1.000000
   55       -0.812507     -0.048306   1.000000   1.000000
   56       -0.768655     -0.006813   1.000000   1.000000
   57       -0.576059      0.509059   1.000000   1.000000
   58       -0.550662      0.512387   1.000000   1.000000
   59       -0.526727      0.568080   1.000000   1.000000
   60       -0.526341      0.588936   1.000000   1.000000
   61       -0.326512      0.593488   1.000000   1.000000
   62       -0.325223      0.636130   1.000000   1.000000
   63       -0.296306      0.781852   1.000000   1.000000
   64       -0.262342      0.792241   1.000000   1.000000
   65       -0.105472      0.802220   1.000000   1.000000
   66       -0.084326      0.817184   1.000000   1.000000
   67        0.024238      1.041710   1.000000   1.000000
   68        0.058977      1.103753   1.000000   1.000000
   69        0.347153      1.168320   1.000000   1.000000
   70        0.390257      1.195069   1.000000   1.000000
   71        0.634681      1.233107   1.000000   1.000000
   72        0.651819      1.316149   1.000000   1.000000
   73        0.668644      1.455476   1.000000   1.000000
   74        0.693105      1.503222   1.000000   1.000000
   75        1.002223      1.506706   1.000000   1.000000
   76        1.013582      1.548817   1.000000   1.000000
   77        1.050940      1.720921   1.000000   1.000000
   78        1.056395      1.768196   1.000000   1.000000
   79        1.218085      1.853468   1.000000   1.000000
   80        1.241239      1.855785   1.000000   1.000000
   81        1.660066      1.942528   1.000000   1.000000
   82        1.687318      1.943492   1.000000   1.000000
   83        1.857573      2.247698   1.000000   1.000000
   84        1.889560      2.275943   1.000000   1.000000
   85        1.931973      2.453145   1.000000   1.000000
   86        1.948475      2.489537   1.000000   1.000000
   87        2.090955      2.707730   1.000000   1.000000
   88        2.159662      2.730172   1.000000   1.000000
   89        2.324224      5.465428   1.000000   0.000000
   90        2.361577      5.508639   1.000000   0.000000
   91        2.386919      5.953552   1.000000   0.000000
   92        2.396570      5.973892   1.000000   0.000000
   93        2.666980      6.219507   1.000000   0.000000
   94        2.707745      6.243909   1.000000   0.000000
   95        2.757362      6.251800   1.000000   0.000000
   96        2.778366      6.265306   1.000000   0.000000
   97        6.010211      6.521908   0.000000   0.000000
   98        6.028842      6.545377   0.000000   0.000000
   99        6.154422      6.900601   0.000000   0.000000
  100        6.176276      6.931403   0.000000   0.000000
  101        6.237967      7.420256   0.000000   0.000000
  102        6.258064      7.454696   0.000000   0.000000
  103        6.531484      7.675238   0.000000   0.000000
  104        6.534574      7.703146   0.000000   0.000000
  105        7.050889      7.941432   0.000000   0.000000
  106        7.097014      7.970022   0.000000   0.000000
  107        7.210457      8.099240   0.000000   0.000000
  108        7.226200      8.118660   0.000000   0.000000
  109        9.901719     10.048666   0.000000   0.000000
  110        9.976106     10.064166   0.000000   0.000000
  111        9.982873     10.078844   0.000000   0.000000
  112       10.066871     10.221119   0.000000   0.000000
  113       10.598745     10.710370   0.000000   0.000000
  114       10.600327     10.711116   0.000000   0.000000
  115       10.995307     11.137716   0.000000   0.000000
  116       11.007491     11.157393   0.000000   0.000000
  117       11.580269     11.649891   0.000000   0.000000
  118       11.630050     11.698834   0.000000   0.000000
  119       13.158796     13.315400   0.000000   0.000000
  120       13.338458     13.492929   0.000000   0.000000
 
  0.4482759E+00  0.0000000E+00  0.0000000E+00  0.4166667E-02
    1      -60.841487    -58.688007   1.000000   1.000000
    2      -60.841152    -58.687664   1.000000   1.000000
    3      -60.836055    -58.681146   1.000000   1.000000
    4      -60.835711    -58.680803   1.000000   1.000000
    5      -60.817831    -58.673039   1.000000   1.000000
    6      -60.817459    -58.672704   1.000000   1.000000
    7      -60.817212    -58.671237   1.000000   1.000000
    8      -60.816761    -58.670864   1.000000   1.000000
    9      -60.816137    -58.670467   1.000000   1.000000
   10      -60.815701    -58.670067   1.000000   1.000000
   11      -60.813997    -58.669689   1.000000   1.000000
   12      -60.813604    -58.669317   1.000000   1.000000
   13      -15.413320    -15.348359   1.000000   1.000000
   14      -15.345124    -15.280520   1.000000   1.000000
   15      -14.417909    -14.329254   1.000000   1.000000
   16      -14.366611    -14.278395   1.000000   1.000000
   17      -14.332585    -14.239461   1.000000   1.000000
   18      -14.330035    -14.226414   1.000000   1.000000
   19      -14.195732    -14.086360   1.000000   1.000000
   20      -14.174092    -14.067567   1.000000   1.000000
   21      -14.040581    -13.925691   1.000000   1.000000
   22      -14.031879    -13.916264   1.000000   1.000000
   23      -13.901139    -13.788862   1.000000   1.000000
   24      -13.879781    -13.763595   1.000000   1.000000
   25      -13.646155    -13.564259   1.000000   1.000000
   26      -13.635975    -13.552121   1.000000   1.000000
   27      -13.618502    -13.547879   1.000000   1.000000
   28      -13.568616    -13.501405   1.000000   1.000000
   29       -3.358046     -3.066317   1.000000   1.000000
   30       -3.320189     -2.970978   1.000000   1.000000
   31       -3.215623     -2.841245   1.000000   1.000000
   32       -3.107219     -2.795330   1.000000   1.000000
   33       -3.074958     -2.622780   1.000000   1.000000
   34       -3.034141     -2.550243   1.000000   1.000000
   35       -2.986645     -2.290133   1.000000   1.000000
   36       -2.967484     -2.236255   1.000000   1.000000
   37       -2.867679     -2.215322   1.000000   1.000000
   38       -2.858409     -2.184390   1.000000   1.000000
   39       -2.856852     -1.543082   1.000000   1.000000
   40       -2.836576     -1.461403   1.000000   1.000000
   41       -2.454986     -1.423268   1.000000   1.000000
   42       -2.439344     -1.369446   1.000000   1.000000
   43       -2.148548     -1.222475   1.000000   1.000000
   44       -1.977017     -1.136937   1.000000   1.000000
   45       -1.951333     -1.130764   1.000000   1.000000
   46       -1.786826     -1.098071   1.000000   1.000000
   47       -1.565152     -0.963609   1.000000   1.000000
   48       -1.552887     -0.876242   1.000000   1.000000
   49       -1.535949     -0.873999   1.000000   1.000000
   50       -1.437297     -0.846313   1.000000   1.000000
   51       -1.293125     -0.242250   1.000000   1.000000
   52       -1.268415     -0.211117   1.000000   1.000000
   53       -1.217085     -0.176388   1.000000   1.000000
   54       -1.185214     -0.155687   1.000000   1.000000
   55       -0.824443     -0.058902   1.000000   1.000000
   56       -0.759576      0.003177   1.000000   1.000000
   57       -0.582463      0.507283   1.000000   1.000000
   58       -0.544556      0.512391   1.000000   1.000000
   59       -0.527180      0.561686   1.000000   1.000000
   60       -0.526768      0.575008   1.000000   1.000000
   61       -0.326917      0.599751   1.000000   1.000000
   62       -0.324931      0.645320   1.000000   1.000000
   63       -0.306646      0.776979   1.000000   1.000000
   64       -0.256865      0.793227   1.000000   1.000000
   65       -0.106457      0.799967   1.000000   1.000000
   66       -0.076089      0.822812   1.000000   1.000000
   67        0.013590      1.028198   1.000000   1.000000
   68        0.065272      1.120693   1.000000   1.000000
   69        0.335114      1.160000   1.000000   1.000000
   70        0.399046      1.200551   1.000000   1.000000
   71        0.619305      1.211568   1.000000   1.000000
   72        0.648799      1.335407   1.000000   1.000000
   73        0.673606      1.442001   1.000000   1.000000
   74        0.706638      1.496781   1.000000   1.000000
   75        0.998468      1.512799   1.000000   1.000000
   76        1.015540      1.559644   1.000000   1.000000
   77        1.045097      1.710311   1.000000   1.000000
   78        1.053772      1.780760   1.000000   1.000000
   79        1.213926      1.849716   1.000000   1.000000
   80        1.247950      1.853118   1.000000   1.000000
   81        1.653514      1.944425   1.000000   1.000000
   82        1.694125      1.945770   1.000000   1.000000
   83        1.834129      2.240753   1.000000   1.000000
   84        1.878681      2.282542   1.000000   1.000000
   85        1.939417      2.446286   1.000000   1.000000
   86        1.970152      2.500467   1.000000   1.000000
   87        2.081120      2.702206   1.000000   1.000000
   88        2.180869      2.735899   1.000000   1.000000
   89        2.308176      5.455041   1.000000   0.000000
   90        2.352298      5.519797   1.000000   0.000000
   91        2.402525      5.949245   1.000000   0.000000
   92        2.404525      5.979630   1.000000   0.000000
   93        2.657577      6.210708   1.000000   0.000000
   94        2.718299      6.238288   1.000000   0.000000
   95        2.751783      6.259167   1.000000   0.000000
   96        2.782826      6.270314   1.000000   0.000000
   97        6.005627      6.516030   0.000000   0.000000
   98        6.033504      6.551117   0.000000   0.000000
   99        6.149082      6.893594   0.000000   0.000000
  100        6.181808      6.939761   0.000000   0.000000
  101        6.233027      7.412463   0.000000   0.000000
  102        6.263100      7.464120   0.000000   0.000000
  103        6.531080      7.666976   0.000000   0.000000
  104        6.535764      7.708416   0.000000   0.000000
  105        7.038771      7.935534   0.000000   0.000000
  106        7.107864      7.977985   0.000000   0.000000
  107        7.206188      8.093281   0.000000   0.000000
  108        7.229755      8.122438   0.000000   0.000000
  109        9.860109     10.005572   0.000000   0.000000
  110        9.975297     10.061352   0.000000   0.000000
  111        9.985360     10.083250   0.000000   0.000000
  112       10.105888     10.262246   0.000000   0.000000
  113       10.601903     10.713395   0.000000   0.000000
  114       10.605783     10.715902   0.000000   0.000000
  115       10.990585     11.131369   0.000000   0.000000
  116       11.008875     11.160867   0.000000   0.000000
  117       11.567086     11.636879   0.000000   0.000000
  118       11.641610     11.710147   0.000000   0.000000
  119       13.112763     13.269697   0.000000   0.000000
  120       13.383374     13.535843   0.000000   0.000000
 
  0.4310345E+00  0.0000000E+00  0.0000000E+00  0.4166667E-02
    1      -60.841512    -58.688042   1.000000   1.000000
    2      -60.841173    -58.687692   1.000000   1.000000
    3      -60.836027    -58.681123   1.000000   1.000000
    4      -60.835684    -58.680778   1.000000   1.000000
    5      -60.817829    -58.673035   1.000000   1.000000
    6      -60.817456    -58.672698   1.000000   1.000000
    7      -60.817155    -58.671171   1.000000   1.000000
    8      -60.816709    -58.670806   1.000000   1.000000
    9      -60.816135    -58.670455   1.000000   1.000000
   10      -60.815699    -58.670055   1.000000   1.000000
   11      -60.813979    -58.669677   1.000000   1.000000
   12      -60.813586    -58.669303   1.000000   1.000000
   13      -15.423633    -15.358634   1.000000   1.000000
   14      -15.332935    -15.268417   1.000000   1.000000
   15      -14.427225    -14.338486   1.000000   1.000000
   16      -14.358897    -14.270755   1.000000   1.000000
   17      -14.332892    -14.241513   1.000000   1.000000
   18      -14.329542    -14.224216   1.000000   1.000000
   19      -14.199124    -14.089157   1.000000   1.000000
   20      -14.170386    -14.064180   1.000000   1.000000
   21      -14.042133    -13.927342   1.000000   1.000000
   22      -14.030536    -13.914787   1.000000   1.000000
   23      -13.904890    -13.793379   1.000000   1.000000
   24      -13.876451    -13.759730   1.000000   1.000000
   25      -13.647846    -13.566982   1.000000   1.000000
   26      -13.634355    -13.560371   1.000000   1.000000
   27      -13.626616    -13.545232   1.000000   1.000000
   28      -13.560295    -13.492944   1.000000   1.000000