 vasp.5.4.4.18Apr17-6-g9f103f2a35 (build Jan 25 2019 22:30:10) complex          
  
 executed on             LinuxIFC date 2021.08.09  14:40:58
 running on   32 total cores
 distrk:  each k-point on   32 cores,    1 groups
 distr:  one band on NCORES_PER_BAND=   4 cores,    8 groups


--------------------------------------------------------------------------------------------------------


 INCAR:
 POTCAR:    PAW_PBE Ni_pv 06Sep2000               
 POTCAR:    PAW_PBE O 08Apr2002                   
 POTCAR:    PAW_PBE W 08Apr2002                   
 POTCAR:    PAW_PBE Cu_pv 06Sep2000               
 POTCAR:    PAW_PBE Ni_pv 06Sep2000               
   VRHFIN =Ni:                                                                  
   LEXCH  = PE                                                                  
   EATOM  =  3501.1230 eV,  257.3253 Ry                                         
                                                                                
   TITEL  = PAW_PBE Ni_pv 06Sep2000                                             
   LULTRA =        F    use ultrasoft PP ?                                      
   IUNSCR =        1    unscreen: 0-lin 1-nonlin 2-no                           
   RPACOR =    1.500    partial core radius                                     
   POMASS =   58.690; ZVAL   =   16.000    mass and valenz                      
   RCORE  =    2.000    outmost cutoff radius                                   
   RWIGS  =    2.000; RWIGS  =    1.058    wigner-seitz radius (au A)           
   ENMAX  =  367.986; ENMIN  =  275.989 eV                                      
   RCLOC  =    1.301    cutoff for local pot                                    
   LCOR   =        T    correct aug charges                                     
   LPAW   =        T    paw PP                                                  
   EAUG   =  703.443                                                            
   DEXC   =    0.000                                                            
   RMAX   =    2.041    core radius for proj-oper                               
   RAUG   =    1.300    factor for augmentation sphere                          
   RDEP   =    2.103    radius for radial grids                                 
   RDEPT  =    1.618    core radius for aug-charge                              
                                                                                
   Atomic configuration                                                         
    8 entries                                                                   
     n  l   j            E        occ.                                          
     1  0  0.50     -8206.4253   2.0000                                         
     2  0  0.50      -976.1748   2.0000                                         
     2  1  1.50      -839.0571   6.0000                                         
     3  0  0.50      -105.9991   2.0000                                         
     3  1  1.50       -66.4603   6.0000                                         
     3  2  2.50        -4.6458   9.0000                                         
     4  0  0.50        -4.4926   1.0000                                         
     4  3  2.50        -1.3606   0.0000                                         
   Description                                                                  
     l       E           TYP  RCUT    TYP  RCUT                                 
     1    -66.4602962     23  1.700                                             
     1     -1.3605826     23  1.700                                             
     2     -4.6457867     23  2.000                                             
     2     -6.0063693     23  2.000                                             
     0     -4.4925576     23  1.900                                             
     0     16.3626226     23  1.900                                             
  local pseudopotential read in
  partial core-charges read in
  partial kinetic energy density read in
  atomic valenz-charges read in
  non local Contribution for L=           1  read in
    real space projection operators read in
  non local Contribution for L=           1  read in
    real space projection operators read in
  non local Contribution for L=           2  read in
    real space projection operators read in
  non local Contribution for L=           2  read in
    real space projection operators read in
  non local Contribution for L=           0  read in
    real space projection operators read in
  non local Contribution for L=           0  read in
    real space projection operators read in
    PAW grid and wavefunctions read in
 
   number of l-projection  operators is LMAX  =           6
   number of lm-projection operators is LMMAX =          18
 
 POTCAR:    PAW_PBE O 08Apr2002                   
   VRHFIN =O: s2p4                                                              
   LEXCH  = PE                                                                  
   EATOM  =   432.3788 eV,   31.7789 Ry                                         
                                                                                
   TITEL  = PAW_PBE O 08Apr2002                                                 
   LULTRA =        F    use ultrasoft PP ?                                      
   IUNSCR =        1    unscreen: 0-lin 1-nonlin 2-no                           
   RPACOR =    1.200    partial core radius                                     
   POMASS =   16.000; ZVAL   =    6.000    mass and valenz                      
   RCORE  =    1.520    outmost cutoff radius                                   
   RWIGS  =    1.550; RWIGS  =    0.820    wigner-seitz radius (au A)           
   ENMAX  =  400.000; ENMIN  =  300.000 eV                                      
   ICORE  =        2    local potential                                         
   LCOR   =        T    correct aug charges                                     
   LPAW   =        T    paw PP                                                  
   EAUG   =  605.392                                                            
   DEXC   =    0.000                                                            
   RMAX   =    1.553    core radius for proj-oper                               
   RAUG   =    1.300    factor for augmentation sphere                          
   RDEP   =    1.550    radius for radial grids                                 
   RDEPT  =    1.329    core radius for aug-charge                              
                                                                                
   Atomic configuration                                                         
    4 entries                                                                   
     n  l   j            E        occ.                                          
     1  0  0.50      -514.6923   2.0000                                         
     2  0  0.50       -23.9615   2.0000                                         
     2  1  0.50        -9.0305   4.0000                                         
     3  2  1.50        -9.5241   0.0000                                         
   Description                                                                  
     l       E           TYP  RCUT    TYP  RCUT                                 
     0    -23.9615318     23  1.200                                             
     0     -9.5240782     23  1.200                                             
     1     -9.0304911     23  1.520                                             
     1      8.1634956     23  1.520                                             
     2     -9.5240782      7  1.500                                             
  local pseudopotential read in
  partial core-charges read in
  partial kinetic energy density read in
  kinetic energy density of atom read in
  atomic valenz-charges read in
  non local Contribution for L=           0  read in
    real space projection operators read in
  non local Contribution for L=           0  read in
    real space projection operators read in
  non local Contribution for L=           1  read in
    real space projection operators read in
  non local Contribution for L=           1  read in
    real space projection operators read in
    PAW grid and wavefunctions read in
 
   number of l-projection  operators is LMAX  =           4
   number of lm-projection operators is LMMAX =           8
 
 POTCAR:    PAW_PBE W 08Apr2002                   
   VRHFIN =W : 6s5d                                                             
   LEXCH  = PE                                                                  
   EATOM  =   204.6103 eV,   15.0384 Ry                                         
                                                                                
   TITEL  = PAW_PBE W 08Apr2002                                                 
   LULTRA =        F    use ultrasoft PP ?                                      
   IUNSCR =        1    unscreen: 0-lin 1-nonlin 2-no                           
   RPACOR =    2.330    partial core radius                                     
   POMASS =  183.850; ZVAL   =    6.000    mass and valenz                      
   RCORE  =    2.750    outmost cutoff radius                                   
   RWIGS  =    2.750; RWIGS  =    1.455    wigner-seitz radius (au A)           
   ENMAX  =  223.057; ENMIN  =  167.293 eV                                      
   RCLOC  =    2.147    cutoff for local pot                                    
   LCOR   =        T    correct aug charges                                     
   LPAW   =        T    paw PP                                                  
   EAUG   =  373.438                                                            
   DEXC   =    0.000                                                            
   RMAX   =    2.801    core radius for proj-oper                               
   RAUG   =    1.300    factor for augmentation sphere                          
   RDEP   =    2.886    radius for radial grids                                 
   RDEPT  =    2.230    core radius for aug-charge                              
                                                                                
   Atomic configuration                                                         
   16 entries                                                                   
     n  l   j            E        occ.                                          
     1  0  0.50    -69465.5836   2.0000                                         
     2  0  0.50    -11986.2642   2.0000                                         
     2  1  1.50    -10479.8616   6.0000                                         
     3  0  0.50     -2759.0758   2.0000                                         
     3  1  1.50     -2313.1857   6.0000                                         
     3  2  2.50     -1801.1185  10.0000                                         
     4  0  0.50      -567.6791   2.0000                                         
     4  1  1.50      -421.4694   6.0000                                         
     4  2  2.50      -236.3473  10.0000                                         
     4  3  3.50       -31.2666  14.0000                                         
     5  0  0.50       -77.1085   2.0000                                         
     5  1  1.50       -41.3856   6.0000                                         
     5  2  2.50        -3.3185   5.0000                                         
     6  0  0.50        -5.1438   1.0000                                         
     6  1  0.50        -3.8096   0.0000                                         
     5  3  2.50        -1.3606   0.0000                                         
   Description                                                                  
     l       E           TYP  RCUT    TYP  RCUT                                 
     2     -3.3185288     23  2.500                                             
     2     -1.5965414     23  2.500                                             
     0     -5.1438054     23  2.500                                             
     0      4.9117504     23  2.500                                             
     1      2.7211652     23  2.750                                             
     1     27.2116520     23  2.750                                             
  local pseudopotential read in
  partial core-charges read in
  partial kinetic energy density read in
  atomic valenz-charges read in
  non local Contribution for L=           2  read in
    real space projection operators read in
  non local Contribution for L=           2  read in
    real space projection operators read in
  non local Contribution for L=           0  read in
    real space projection operators read in
  non local Contribution for L=           0  read in
    real space projection operators read in
  non local Contribution for L=           1  read in
    real space projection operators read in
  non local Contribution for L=           1  read in
    real space projection operators read in
    PAW grid and wavefunctions read in
 
   number of l-projection  operators is LMAX  =           6
   number of lm-projection operators is LMMAX =          18
 
 POTCAR:    PAW_PBE Cu_pv 06Sep2000               
   VRHFIN =Cu: d10 p1                                                           
   LEXCH  = PE                                                                  
   EATOM  =  4120.1201 eV,  302.8203 Ry                                         
                                                                                
   TITEL  = PAW_PBE Cu_pv 06Sep2000                                             
   LULTRA =        F    use ultrasoft PP ?                                      
   IUNSCR =        1    unscreen: 0-lin 1-nonlin 2-no                           
   RPACOR =    1.500    partial core radius                                     
   POMASS =   63.546; ZVAL   =   17.000    mass and valenz                      
   RCORE  =    2.000    outmost cutoff radius                                   
   RWIGS  =    2.000; RWIGS  =    1.058    wigner-seitz radius (au A)           
   ENMAX  =  368.648; ENMIN  =  276.486 eV                                      
   RCLOC  =    1.304    cutoff for local pot                                    
   LCOR   =        T    correct aug charges                                     
   LPAW   =        T    paw PP                                                  
   EAUG   =  758.233                                                            
   DEXC   =    0.000                                                            
   RMAX   =    2.046    core radius for proj-oper                               
   RAUG   =    1.300    factor for augmentation sphere                          
   RDEP   =    2.025    radius for radial grids                                 
   RDEPT  =    1.558    core radius for aug-charge                              
                                                                                
   Atomic configuration                                                         
    8 entries                                                                   
     n  l   j            E        occ.                                          
     1  0  0.50     -8850.2467   2.0000                                         
     2  0  0.50     -1062.3498   2.0000                                         
     2  1  1.50      -916.8226   6.0000                                         
     3  0  0.50      -114.6929   2.0000                                         
     3  1  1.50       -72.1325   6.0000                                         
     3  2  2.50        -5.0394  10.0000                                         
     4  0  0.50        -4.6097   1.0000                                         
     4  3  2.50        -1.3606   0.0000                                         
   Description                                                                  
     l       E           TYP  RCUT    TYP  RCUT                                 
     1    -72.1324777     23  1.700                                             
     1     -1.3605826     23  1.700                                             
     2     -5.0393776     23  2.000                                             
     2     -6.3999602     23  2.000                                             
     0     -4.6097062     23  1.800                                             
     0     14.1620818     23  1.800                                             
  local pseudopotential read in
  partial core-charges read in
  partial kinetic energy density read in
  atomic valenz-charges read in
  non local Contribution for L=           1  read in
    real space projection operators read in
  non local Contribution for L=           1  read in
    real space projection operators read in
  non local Contribution for L=           2  read in
    real space projection operators read in
  non local Contribution for L=           2  read in
    real space projection operators read in
  non local Contribution for L=           0  read in
    real space projection operators read in
  non local Contribution for L=           0  read in
    real space projection operators read in
    PAW grid and wavefunctions read in
 
   number of l-projection  operators is LMAX  =           6
   number of lm-projection operators is LMMAX =          18
 
 Optimization of the real space projectors (new method)

 maximal supplied QI-value         = 18.90
 optimisation between [QCUT,QGAM] = [ 11.34, 22.87] = [ 36.00,146.41] Ry 
 Optimized for a Real-space Cutoff    1.35 Angstroem

   l    n(q)    QCUT    max X(q) W(low)/X(q) W(high)/X(q)  e(spline) 
   1      9    11.338     2.836    0.21E-04    0.44E-04    0.96E-07
   1      9    11.338     4.023    0.81E-04    0.11E-03    0.22E-06
   2      8    11.338    73.368    0.36E-03    0.40E-03    0.33E-06
   2      8    11.338    69.010    0.37E-03    0.41E-03    0.34E-06
   0      9    11.338    54.797    0.66E-04    0.74E-04    0.73E-07
   0      9    11.338    24.266    0.52E-04    0.65E-04    0.65E-07
 Optimization of the real space projectors (new method)

 maximal supplied QI-value         = 24.76
 optimisation between [QCUT,QGAM] = [ 11.39, 22.77] = [ 36.31,145.25] Ry 
 Optimized for a Real-space Cutoff    1.00 Angstroem

   l    n(q)    QCUT    max X(q) W(low)/X(q) W(high)/X(q)  e(spline) 
   0      7    11.387    20.381    0.39E-03    0.13E-02    0.15E-06
   0      7    11.387    15.268    0.42E-03    0.14E-02    0.17E-06
   1      6    11.387     5.964    0.41E-03    0.11E-02    0.17E-06
   1      6    11.387     5.382    0.39E-03    0.87E-03    0.15E-06
 Optimization of the real space projectors (new method)

 maximal supplied QI-value         = 13.61
 optimisation between [QCUT,QGAM] = [ 11.43, 22.86] = [ 36.58,146.31] Ry 
 Optimized for a Real-space Cutoff    1.56 Angstroem

   l    n(q)    QCUT    max X(q) W(low)/X(q) W(high)/X(q)  e(spline) 
   2     10    11.429   130.855    0.22E-03    0.64E-03    0.11E-05
   2     10    11.429   114.007    0.22E-03    0.64E-03    0.11E-05
   0     11    11.429    84.709    0.39E-04    0.67E-04    0.23E-06
   0     11    11.429    49.163    0.35E-04    0.62E-04    0.21E-06
   1     10    11.429    15.765    0.84E-04    0.15E-03    0.24E-06
   1     10    11.429    10.638    0.58E-04    0.12E-03    0.19E-06
 Optimization of the real space projectors (new method)

 maximal supplied QI-value         = 18.90
 optimisation between [QCUT,QGAM] = [ 11.34, 22.87] = [ 36.00,146.41] Ry 
 Optimized for a Real-space Cutoff    1.35 Angstroem

   l    n(q)    QCUT    max X(q) W(low)/X(q) W(high)/X(q)  e(spline) 
   1      9    11.338     3.172    0.27E-04    0.54E-04    0.11E-06
   1      9    11.338     4.083    0.75E-04    0.10E-03    0.21E-06
   2      8    11.338    65.342    0.34E-03    0.39E-03    0.31E-06
   2      8    11.338    61.381    0.35E-03    0.40E-03    0.31E-06
   0      9    11.338    65.742    0.63E-04    0.53E-04    0.82E-07
   0      9    11.338    30.431    0.56E-04    0.48E-04    0.75E-07
  PAW_PBE Ni_pv 06Sep2000               :
 energy of atom  1       EATOM=-3501.1230
 kinetic energy error for atom=    0.0690 (will be added to EATOM!!)
  PAW_PBE O 08Apr2002                   :
 energy of atom  2       EATOM= -432.3788
 kinetic energy error for atom=    0.0224 (will be added to EATOM!!)
  PAW_PBE W 08Apr2002                   :
 energy of atom  3       EATOM= -204.6103
 kinetic energy error for atom=    0.0017 (will be added to EATOM!!)
  PAW_PBE Cu_pv 06Sep2000               :
 energy of atom  4       EATOM=-4120.1201
 kinetic energy error for atom=    0.0655 (will be added to EATOM!!)
 
 
 POSCAR: Ni O4 W                                 
  positions in direct lattice
  velocities in cartesian coordinates
 exchange correlation table for  LEXCH =        8
   RHO(1)=    0.500       N(1)  =     2000
   RHO(2)=  100.500       N(2)  =     4000
 


--------------------------------------------------------------------------------------------------------


 ion  position               nearest neighbor table
   1  0.250  0.647  0.125-  11 2.00  23 2.00  36 2.01  19 2.01  27 2.01  31 2.01
   2  0.750  0.657  0.125-  38 1.96  29 1.96  33 2.05  25 2.06  21 2.06  13 2.06
   3  0.750  0.657  0.625-  37 1.96  30 1.96  34 2.05  26 2.06  22 2.06  14 2.06
   4  0.250  0.346  0.875-  31 1.98  24 1.98   8 2.01  16 2.01  28 2.03  36 2.03
   5  0.250  0.647  0.625-  12 2.00  24 2.01  20 2.01  35 2.01  28 2.01  32 2.01
   6  0.250  0.347  0.375-  32 1.98  23 1.98   7 2.01  15 2.01  27 2.03  35 2.03
   7  0.114  0.114  0.460-  40 1.94   6 2.01  43 2.11
   8  0.114  0.113  0.960-  39 1.94   4 2.01  44 2.11
   9  0.607  0.108  0.467-  42 1.91  48 2.05  45 2.08
  10  0.606  0.108  0.967-  41 1.91  47 2.05  46 2.08
  11  0.382  0.884  0.038-  46 1.94   1 2.00  41 2.15
  12  0.382  0.884  0.538-  45 1.94   5 2.00  42 2.14
  13  0.891  0.891  0.034-  44 1.95   2 2.06  39 2.09
  14  0.891  0.891  0.534-  43 1.95   3 2.06  40 2.09
  15  0.386  0.113  0.290-  41 1.95   6 2.01  45 2.11
  16  0.386  0.113  0.790-  42 1.95   4 2.01  46 2.11
  17  0.894  0.108  0.282-  39 1.91  48 2.06  43 2.08
  18  0.894  0.108  0.782-  40 1.91  47 2.06  44 2.08
  19  0.118  0.885  0.212-  43 1.94   1 2.01  39 2.14
  20  0.118  0.885  0.712-  44 1.94   5 2.01  40 2.14
  21  0.609  0.891  0.216-  45 1.95   2 2.06  41 2.09
  22  0.609  0.890  0.716-  46 1.95   3 2.06  42 2.09
  23  0.136  0.381  0.205-  39 1.86   6 1.98   1 2.00
  24  0.136  0.380  0.705-  40 1.86   4 1.98   5 2.01
  25  0.628  0.383  0.200-  41 1.82   2 2.06  48 2.07
  26  0.628  0.383  0.700-  42 1.82   3 2.06  47 2.07
  27  0.367  0.617  0.297-  45 1.85   1 2.01   6 2.03
  28  0.367  0.616  0.797-  46 1.85   5 2.01   4 2.03
  29  0.868  0.631  0.291-  43 1.83   2 1.96  48 2.17
  30  0.868  0.631  0.791-  44 1.82   3 1.96  47 2.17
  31  0.364  0.377  0.045-  41 1.86   4 1.98   1 2.01
  32  0.364  0.378  0.545-  42 1.86   6 1.98   5 2.01
  33  0.872  0.384  0.050-  39 1.82   2 2.05  47 2.07
  34  0.872  0.384  0.550-  40 1.82   3 2.05  48 2.07
  35  0.133  0.619  0.453-  43 1.85   5 2.01   6 2.03
  36  0.133  0.619  0.953-  44 1.85   1 2.01   4 2.03
  37  0.632  0.632  0.459-  45 1.83   3 1.96  48 2.18
  38  0.632  0.632  0.959-  46 1.83   2 1.96  47 2.18
  39  0.002  0.176  0.123-  33 1.82  23 1.86  17 1.91   8 1.94  13 2.09  19 2.14  43 3.16  44 3.19

  40  0.002  0.175  0.623-  34 1.82  24 1.86  18 1.91   7 1.94  14 2.09  20 2.14  44 3.16  43 3.19

  41  0.498  0.175  0.127-  25 1.82  31 1.86  10 1.91  15 1.95  21 2.09  11 2.15  46 3.16  45 3.18

  42  0.498  0.175  0.627-  26 1.82  32 1.86   9 1.91  16 1.95  22 2.09  12 2.14  45 3.16  46 3.18

  43  0.003  0.825  0.371-  29 1.83  35 1.85  19 1.94  14 1.95  17 2.08   7 2.11  39 3.16  40 3.19

  44  0.003  0.825  0.871-  30 1.82  36 1.85  20 1.94  13 1.95  18 2.08   8 2.11  40 3.16  39 3.19

  45  0.497  0.824  0.378-  37 1.83  27 1.85  12 1.94  21 1.95   9 2.08  15 2.11  42 3.16  41 3.18

  46  0.497  0.824  0.878-  38 1.83  28 1.85  11 1.94  22 1.95  10 2.08  16 2.11  41 3.16  42 3.18

  47  0.750  0.334  0.875-  10 2.05  18 2.06  26 2.07  33 2.07  30 2.17  38 2.18
  48  0.750  0.334  0.375-   9 2.05  17 2.06  25 2.07  34 2.07  29 2.17  37 2.18
 

IMPORTANT INFORMATION: All symmetrisations will be switched off!
NOSYMM: (Re-)initialisation of all symmetry stuff for point group C_1.

 
 
 KPOINTS: Automatic mesh                          

Automatic generation of k-mesh.
Space group operators:
 irot       det(A)        alpha          n_x          n_y          n_z        tau_x        tau_y        tau_z
    1     1.000000     0.000000     1.000000     0.000000     0.000000     0.000000     0.000000     0.000000
 
 Subroutine IBZKPT returns following result:
 ===========================================
 
 Found     68 irreducible k-points:
 
 Following reciprocal coordinates:
            Coordinates               Weight
  0.000000  0.000000  0.000000      1.000000
  0.250000 -0.000000  0.000000      2.000000
  0.500000 -0.000000  0.000000      1.000000
 -0.000000  0.125000 -0.000000      2.000000
  0.250000  0.125000  0.000000      2.000000
  0.500000  0.125000  0.000000      2.000000
 -0.250000  0.125000 -0.000000      2.000000
 -0.000000  0.250000 -0.000000      2.000000
  0.250000  0.250000  0.000000      2.000000
  0.500000  0.250000  0.000000      2.000000
 -0.250000  0.250000  0.000000      2.000000
  0.000000  0.375000  0.000000      2.000000
  0.250000  0.375000 -0.000000      2.000000
  0.500000  0.375000  0.000000      2.000000
 -0.250000  0.375000  0.000000      2.000000
 -0.000000  0.500000 -0.000000      1.000000
  0.250000  0.500000  0.000000      2.000000
  0.500000  0.500000  0.000000      1.000000
  0.000000  0.000000  0.250000      2.000000
  0.250000 -0.000000  0.250000      2.000000
  0.500000 -0.000000  0.250000      2.000000
 -0.250000  0.000000  0.250000      2.000000
  0.000000  0.125000  0.250000      2.000000
  0.250000  0.125000  0.250000      2.000000
  0.500000  0.125000  0.250000      2.000000
 -0.250000  0.125000  0.250000      2.000000
 -0.000000  0.250000  0.250000      2.000000
  0.250000  0.250000  0.250000      2.000000
  0.500000  0.250000  0.250000      2.000000
 -0.250000  0.250000  0.250000      2.000000
  0.000000  0.375000  0.250000      2.000000
  0.250000  0.375000  0.250000      2.000000
  0.500000  0.375000  0.250000      2.000000
 -0.250000  0.375000  0.250000      2.000000
  0.000000  0.500000  0.250000      2.000000
  0.250000  0.500000  0.250000      2.000000
  0.500000  0.500000  0.250000      2.000000
 -0.250000  0.500000  0.250000      2.000000
  0.000000 -0.375000  0.250000      2.000000
  0.250000 -0.375000  0.250000      2.000000
  0.500000 -0.375000  0.250000      2.000000
 -0.250000 -0.375000  0.250000      2.000000
  0.000000 -0.250000  0.250000      2.000000
  0.250000 -0.250000  0.250000      2.000000
  0.500000 -0.250000  0.250000      2.000000
 -0.250000 -0.250000  0.250000      2.000000
  0.000000 -0.125000  0.250000      2.000000
  0.250000 -0.125000  0.250000      2.000000
  0.500000 -0.125000  0.250000      2.000000
 -0.250000 -0.125000  0.250000      2.000000
  0.000000  0.000000  0.500000      1.000000
  0.250000  0.000000  0.500000      2.000000
  0.500000 -0.000000  0.500000      1.000000
  0.000000  0.125000  0.500000      2.000000
  0.250000  0.125000  0.500000      2.000000
  0.500000  0.125000  0.500000      2.000000
 -0.250000  0.125000  0.500000      2.000000
  0.000000  0.250000  0.500000      2.000000
  0.250000  0.250000  0.500000      2.000000
  0.500000  0.250000  0.500000      2.000000
 -0.250000  0.250000  0.500000      2.000000
  0.000000  0.375000  0.500000      2.000000
  0.250000  0.375000  0.500000      2.000000
  0.500000  0.375000  0.500000      2.000000
 -0.250000  0.375000  0.500000      2.000000
 -0.000000  0.500000  0.500000      1.000000
  0.250000  0.500000  0.500000      2.000000
  0.500000  0.500000  0.500000      1.000000
 
 Following cartesian coordinates:
            Coordinates               Weight
  0.000000  0.000000  0.000000      1.000000
  0.027340 -0.000000  0.000167      2.000000
  0.054680 -0.000001  0.000333      1.000000
 -0.000000  0.022060 -0.000001      2.000000
  0.027340  0.022060  0.000165      2.000000
  0.054679  0.022060  0.000332      2.000000
 -0.027340  0.022060 -0.000168      2.000000
 -0.000001  0.044120 -0.000003      2.000000
  0.027339  0.044120  0.000164      2.000000
  0.054679  0.044120  0.000331      2.000000
 -0.027341  0.044121 -0.000169      2.000000
 -0.000001  0.066181 -0.000004      2.000000
  0.027339  0.066180  0.000163      2.000000
  0.054679  0.066180  0.000329      2.000000
 -0.027341  0.066181 -0.000170      2.000000
 -0.000001  0.088241 -0.000005      1.000000
  0.027338  0.088240  0.000162      2.000000
  0.054678  0.088240  0.000328      1.000000
  0.000125 -0.000001  0.025257      2.000000
  0.027465 -0.000002  0.025424      2.000000
  0.054805 -0.000002  0.025591      2.000000
 -0.027215 -0.000001  0.025091      2.000000
  0.000125  0.022059  0.025256      2.000000
  0.027464  0.022059  0.025423      2.000000
  0.054804  0.022058  0.025589      2.000000
 -0.027215  0.022059  0.025090      2.000000
  0.000124  0.044119  0.025255      2.000000
  0.027464  0.044119  0.025422      2.000000
  0.054804  0.044119  0.025588      2.000000
 -0.027216  0.044119  0.025088      2.000000
  0.000124  0.066179  0.025254      2.000000
  0.027464  0.066179  0.025420      2.000000
  0.054804  0.066179  0.025587      2.000000
 -0.027216  0.066180  0.025087      2.000000
  0.000123  0.088239  0.025252      2.000000
  0.027463  0.088239  0.025419      2.000000
  0.054803  0.088239  0.025586      2.000000
 -0.027216  0.088240  0.025086      2.000000
  0.000126 -0.066182  0.025261      2.000000
  0.027466 -0.066182  0.025428      2.000000
  0.054806 -0.066182  0.025595      2.000000
 -0.027214 -0.066181  0.025095      2.000000
  0.000126 -0.044122  0.025260      2.000000
  0.027466 -0.044122  0.025427      2.000000
  0.054805 -0.044122  0.025593      2.000000
 -0.027214 -0.044121  0.025093      2.000000
  0.000125 -0.022061  0.025259      2.000000
  0.027465 -0.022062  0.025425      2.000000
  0.054805 -0.022062  0.025592      2.000000
 -0.027215 -0.022061  0.025092      2.000000
  0.000250 -0.000002  0.050515      1.000000
  0.027590 -0.000003  0.050682      2.000000
  0.054930 -0.000003  0.050848      1.000000
  0.000249  0.022058  0.050514      2.000000
  0.027589  0.022057  0.050680      2.000000
  0.054929  0.022057  0.050847      2.000000
 -0.027090  0.022058  0.050347      2.000000
  0.000249  0.044118  0.050512      2.000000
  0.027589  0.044118  0.050679      2.000000
  0.054929  0.044117  0.050846      2.000000
 -0.027091  0.044118  0.050346      2.000000
  0.000249  0.066178  0.050511      2.000000
  0.027589  0.066178  0.050678      2.000000
  0.054929  0.066177  0.050844      2.000000
 -0.027091  0.066178  0.050344      2.000000
  0.000248  0.088238  0.050510      1.000000
  0.027588  0.088238  0.050676      2.000000
  0.054928  0.088238  0.050843      1.000000
 
 TETIRR: Found    384 inequivalent tetrahedra from      768


--------------------------------------------------------------------------------------------------------




 Dimension of arrays:
   k-points           NKPTS =     68   k-points in BZ     NKDIM =     68   number of bands    NBANDS=    224
   number of dos      NEDOS =   2001   number of ions     NIONS =     48
   non local maximal  LDIM  =      6   non local SUM 2l+1 LMDIM =     18
   total plane-waves  NPLWV =  86400
   max r-space proj   IRMAX =   2750   max aug-charges    IRDMAX=   9814
   dimension x,y,z NGX =    50 NGY =   32 NGZ =   54
   dimension x,y,z NGXF=   100 NGYF=   64 NGZF=  108
   support grid    NGXF=   100 NGYF=   64 NGZF=  108
   ions per type =               6  32   8   2
   NGX,Y,Z   is equivalent  to a cutoff of   9.09,  9.39,  9.07 a.u.
   NGXF,Y,Z  is equivalent  to a cutoff of  18.18, 18.78, 18.14 a.u.

 SYSTEM =  NiWO4                                   
 POSCAR =  Ni O4 W                                 

 Startparameter for this run:
   NWRITE =      2    write-flag & timer
   PREC   = normal    normal or accurate (medium, high low for compatibility)
   ISTART =      0    job   : 0-new  1-cont  2-samecut
   ICHARG =      2    charge: 1-file 2-atom 10-const
   ISPIN  =      1    spin polarized calculation?
   LNONCOLLINEAR =      F non collinear calculations
   LSORBIT =      F    spin-orbit coupling
   INIWAV =      1    electr: 0-lowe 1-rand  2-diag
   LASPH  =      F    aspherical Exc in radial PAW
   METAGGA=      F    non-selfconsistent MetaGGA calc.

 Electronic Relaxation 1
   ENCUT  =  500.0 eV  36.75 Ry    6.06 a.u.  16.67 10.33 18.05*2*pi/ulx,y,z
   ENINI  =  500.0     initial cutoff
   ENAUG  =  758.2 eV  augmentation charge cutoff
   NELM   =    400;   NELMIN=  2; NELMDL= -5     # of ELM steps 
   EDIFF  = 0.1E-04   stopping-criterion for ELM
   LREAL  =      T    real-space projection
   NLSPLINE    = F    spline interpolate recip. space projectors
   LCOMPAT=      F    compatible to vasp.4.4
   GGA_COMPAT  = T    GGA compatible to vasp.4.4-vasp.4.6
   LMAXPAW     = -100 max onsite density
   LMAXMIX     =    4 max onsite mixed and CHGCAR
   VOSKOWN=      0    Vosko Wilk Nusair interpolation
   ROPT   =   -0.00050  -0.00050  -0.00050  -0.00050
 Ionic relaxation
   EDIFFG = 0.1E-03   stopping-criterion for IOM
   NSW    =      0    number of steps for IOM
   NBLOCK =      1;   KBLOCK =      1    inner block; outer block 
   IBRION =     -1    ionic relax: 0-MD 1-quasi-New 2-CG
   NFREE  =      0    steps in history (QN), initial steepest desc. (CG)
   ISIF   =      2    stress and relaxation
   IWAVPR =     10    prediction:  0-non 1-charg 2-wave 3-comb
   ISYM   =      0    0-nonsym 1-usesym 2-fastsym
   LCORR  =      T    Harris-Foulkes like correction to forces

   POTIM  = 0.5000    time-step for ionic-motion
   TEIN   =    0.0    initial temperature
   TEBEG  =    0.0;   TEEND  =   0.0 temperature during run
   SMASS  =  -3.00    Nose mass-parameter (am)
   estimated Nose-frequenzy (Omega)   =  0.10E-29 period in steps =****** mass=  -0.191E-26a.u.
   SCALEE = 1.0000    scale energy and forces
   NPACO  =    256;   APACO  = 16.0  distance and # of slots for P.C.
   PSTRESS=    0.0 pullay stress

  Mass of Ions in am
   POMASS =  58.69 16.00183.85 63.55
  Ionic Valenz
   ZVAL   =  16.00  6.00  6.00 17.00
  Atomic Wigner-Seitz radii
   RWIGS  =  -1.00 -1.00 -1.00 -1.00
  virtual crystal weights 
   VCA    =   1.00  1.00  1.00  1.00
   NELECT =     370.0000    total number of electrons
   NUPDOWN=      -1.0000    fix difference up-down

 DOS related values:
   EMIN   =  10.00;   EMAX   =-10.00  energy-range for DOS
   EFERMI =   0.00
   ISMEAR =    -5;   SIGMA  =   0.10  broadening in eV -4-tet -1-fermi 0-gaus

 Electronic relaxation 2 (details)
   IALGO  =     38    algorithm
   LDIAG  =      T    sub-space diagonalisation (order eigenvalues)
   LSUBROT=      F    optimize rotation matrix (better conditioning)
   TURBO    =      0    0=normal 1=particle mesh
   IRESTART =      0    0=no restart 2=restart with 2 vectors
   NREBOOT  =      0    no. of reboots
   NMIN     =      0    reboot dimension
   EREF     =   0.00    reference energy to select bands
   IMIX   =      4    mixing-type and parameters
     AMIX     =   0.40;   BMIX     =  1.00
     AMIX_MAG =   1.60;   BMIX_MAG =  1.00
     AMIN     =   0.10
     WC   =   100.;   INIMIX=   1;  MIXPRE=   1;  MAXMIX= -45

 Intra band minimization:
   WEIMIN = 0.0000     energy-eigenvalue tresh-hold
   EBREAK =  0.11E-07  absolut break condition
   DEPER  =   0.30     relativ break condition  

   TIME   =   0.40     timestep for ELM

  volume/ion in A,a.u.               =      10.68        72.10
  Fermi-wavevector in a.u.,A,eV,Ry     =   1.468270  2.774629 29.331687  2.155818
  Thomas-Fermi vector in A             =   2.583788
 
 Write flags
   LWAVE        =      T    write WAVECAR
   LDOWNSAMPLE  =      F    k-point downsampling of WAVECAR
   LCHARG       =      T    write CHGCAR
   LVTOT        =      F    write LOCPOT, total local potential
   LVHAR        =      F    write LOCPOT, Hartree potential only
   LELF         =      F    write electronic localiz. function (ELF)
   LORBIT       =     11    0 simple, 1 ext, 2 COOP (PROOUT), +10 PAW based schemes


 Dipole corrections
   LMONO  =      F    monopole corrections only (constant potential shift)
   LDIPOL =      F    correct potential (dipole corrections)
   IDIPOL =      0    1-x, 2-y, 3-z, 4-all directions 
   EPSILON=  1.0000000 bulk dielectric constant

 Exchange correlation treatment:
   GGA     =    PE    GGA type
   LEXCH   =     8    internal setting for exchange type
   VOSKOWN=      0    Vosko Wilk Nusair interpolation
   LHFCALC =     F    Hartree Fock is set to
   LHFONE  =     F    Hartree Fock one center treatment
   AEXX    =    0.0000 exact exchange contribution

 Linear response parameters
   LEPSILON=     F    determine dielectric tensor
   LRPA    =     F    only Hartree local field effects (RPA)
   LNABLA  =     F    use nabla operator in PAW spheres
   LVEL    =     F    velocity operator in full k-point grid
   LINTERFAST=   F  fast interpolation
   KINTER  =     0    interpolate to denser k-point grid
   CSHIFT  =0.1000    complex shift for real part using Kramers Kronig
   OMEGAMAX=  -1.0    maximum frequency
   DEG_THRESHOLD= 0.2000000E-02 threshold for treating states as degnerate
   RTIME   =   -0.100 relaxation time in fs
  (WPLASMAI=    0.000 imaginary part of plasma frequency in eV, 0.658/RTIME)
   DFIELD  = 0.0000000 0.0000000 0.0000000 field for delta impulse in time
 
 Orbital magnetization related:
   ORBITALMAG=     F  switch on orbital magnetization
   LCHIMAG   =     F  perturbation theory with respect to B field
   DQ        =  0.001000  dq finite difference perturbation B field
   LLRAUG    =     F  two centre corrections for induced B field



--------------------------------------------------------------------------------------------------------


 Static calculation
 charge density and potential will be updated during run
 non-spin polarized calculation
 Variant of blocked Davidson
 Davidson routine will perform the subspace rotation
 perform sub-space diagonalisation
    after iterative eigenvector-optimisation
 modified Broyden-mixing scheme, WC =      100.0
 initial mixing is a Kerker type mixing with AMIX =  0.4000 and BMIX =      1.0000
 Hartree-type preconditioning will be used
 using additional bands           39
 real space projection scheme for non local part
 use partial core corrections
 calculate Harris-corrections to forces 
   (improved forces if not selfconsistent)
 use gradient corrections 
 use of overlap-Matrix (Vanderbilt PP)
 Fermi weights with tetrahedron method with Bloechl corrections


--------------------------------------------------------------------------------------------------------


  energy-cutoff  :      500.00
  volume of cell :      512.87
      direct lattice vectors                 reciprocal lattice vectors
     9.144423289  0.000146579 -0.045228287     0.109359564 -0.000001185  0.000666490
     0.000059700  5.666321561  0.000276693    -0.000002879  0.176481337 -0.000010154
    -0.060325398  0.000568500  9.898367703     0.000499693 -0.000004939  0.101029804

  length of vectors
     9.144535139  5.666321568  9.898551544     0.109361595  0.176481337  0.101031040


 
 k-points in units of 2pi/SCALE and weight: Automatic mesh                          
   0.00000000  0.00000000  0.00000000       0.008
   0.02733989 -0.00000030  0.00016662       0.016
   0.05467978 -0.00000059  0.00033324       0.008
  -0.00000036  0.02206017 -0.00000127       0.016
   0.02733953  0.02205987  0.00016535       0.016
   0.05467942  0.02205957  0.00033198       0.016
  -0.02734025  0.02206046 -0.00016789       0.016
  -0.00000072  0.04412033 -0.00000254       0.016
   0.02733917  0.04412004  0.00016408       0.016
   0.05467906  0.04411974  0.00033071       0.016
  -0.02734061  0.04412063 -0.00016916       0.016
  -0.00000108  0.06618050 -0.00000381       0.016
   0.02733881  0.06618021  0.00016281       0.016
   0.05467870  0.06617991  0.00032944       0.016
  -0.02734097  0.06618080 -0.00017043       0.016
  -0.00000144  0.08824067 -0.00000508       0.008
   0.02733845  0.08824037  0.00016155       0.016
   0.05467834  0.08824008  0.00032817       0.008
   0.00012492 -0.00000123  0.02525745       0.016
   0.02746481 -0.00000153  0.02542407       0.016
   0.05480471 -0.00000183  0.02559070       0.016
  -0.02721497 -0.00000094  0.02509083       0.016
   0.00012456  0.02205893  0.02525618       0.016
   0.02746445  0.02205864  0.02542280       0.016
   0.05480435  0.02205834  0.02558943       0.016
  -0.02721533  0.02205923  0.02508956       0.016
   0.00012420  0.04411910  0.02525491       0.016
   0.02746409  0.04411880  0.02542153       0.016
   0.05480399  0.04411851  0.02558816       0.016
  -0.02721569  0.04411940  0.02508829       0.016
   0.00012384  0.06617927  0.02525364       0.016
   0.02746373  0.06617897  0.02542027       0.016
   0.05480363  0.06617867  0.02558689       0.016
  -0.02721605  0.06617956  0.02508702       0.016
   0.00012348  0.08823943  0.02525237       0.016
   0.02746337  0.08823914  0.02541900       0.016
   0.05480327  0.08823884  0.02558562       0.016
  -0.02721641  0.08823973  0.02508575       0.016
   0.00012600 -0.06618174  0.02526126       0.016
   0.02746589 -0.06618203  0.02542788       0.016
   0.05480578 -0.06618233  0.02559450       0.016
  -0.02721389 -0.06618144  0.02509464       0.016
   0.00012564 -0.04412157  0.02525999       0.016
   0.02746553 -0.04412187  0.02542661       0.016
   0.05480543 -0.04412216  0.02559323       0.016
  -0.02721425 -0.04412127  0.02509337       0.016
   0.00012528 -0.02206140  0.02525872       0.016
   0.02746517 -0.02206170  0.02542534       0.016
   0.05480507 -0.02206199  0.02559196       0.016
  -0.02721461 -0.02206111  0.02509210       0.016
   0.00024985 -0.00000247  0.05051490       0.008
   0.02758974 -0.00000277  0.05068152       0.016
   0.05492963 -0.00000306  0.05084815       0.008
   0.00024949  0.02205770  0.05051363       0.016
   0.02758938  0.02205740  0.05068026       0.016
   0.05492927  0.02205711  0.05084688       0.016
  -0.02709040  0.02205799  0.05034701       0.016
   0.00024913  0.04411786  0.05051236       0.016
   0.02758902  0.04411757  0.05067899       0.016
   0.05492891  0.04411727  0.05084561       0.016
  -0.02709076  0.04411816  0.05034574       0.016
   0.00024877  0.06617803  0.05051109       0.016
   0.02758866  0.06617774  0.05067772       0.016
   0.05492855  0.06617744  0.05084434       0.016
  -0.02709112  0.06617833  0.05034447       0.016
   0.00024841  0.08823820  0.05050983       0.008
   0.02758830  0.08823790  0.05067645       0.016
   0.05492819  0.08823761  0.05084307       0.008
 
 k-points in reciprocal lattice and weights: Automatic mesh                          
   0.00000000  0.00000000  0.00000000       0.008
   0.25000000 -0.00000000  0.00000000       0.016
   0.50000000 -0.00000000  0.00000000       0.008
  -0.00000000  0.12500000 -0.00000000       0.016
   0.25000000  0.12500000  0.00000000       0.016
   0.50000000  0.12500000  0.00000000       0.016
  -0.25000000  0.12500000 -0.00000000       0.016
  -0.00000000  0.25000000 -0.00000000       0.016
   0.25000000  0.25000000  0.00000000       0.016
   0.50000000  0.25000000  0.00000000       0.016
  -0.25000000  0.25000000  0.00000000       0.016
   0.00000000  0.37500000  0.00000000       0.016
   0.25000000  0.37500000 -0.00000000       0.016
   0.50000000  0.37500000  0.00000000       0.016
  -0.25000000  0.37500000  0.00000000       0.016
  -0.00000000  0.50000000 -0.00000000       0.008
   0.25000000  0.50000000  0.00000000       0.016
   0.50000000  0.50000000  0.00000000       0.008
   0.00000000  0.00000000  0.25000000       0.016
   0.25000000 -0.00000000  0.25000000       0.016
   0.50000000 -0.00000000  0.25000000       0.016
  -0.25000000  0.00000000  0.25000000       0.016
   0.00000000  0.12500000  0.25000000       0.016
   0.25000000  0.12500000  0.25000000       0.016
   0.50000000  0.12500000  0.25000000       0.016
  -0.25000000  0.12500000  0.25000000       0.016
  -0.00000000  0.25000000  0.25000000       0.016
   0.25000000  0.25000000  0.25000000       0.016
   0.50000000  0.25000000  0.25000000       0.016
  -0.25000000  0.25000000  0.25000000       0.016
   0.00000000  0.37500000  0.25000000       0.016
   0.25000000  0.37500000  0.25000000       0.016
   0.50000000  0.37500000  0.25000000       0.016
  -0.25000000  0.37500000  0.25000000       0.016
   0.00000000  0.50000000  0.25000000       0.016
   0.25000000  0.50000000  0.25000000       0.016
   0.50000000  0.50000000  0.25000000       0.016
  -0.25000000  0.50000000  0.25000000       0.016
   0.00000000 -0.37500000  0.25000000       0.016
   0.25000000 -0.37500000  0.25000000       0.016
   0.50000000 -0.37500000  0.25000000       0.016
  -0.25000000 -0.37500000  0.25000000       0.016
   0.00000000 -0.25000000  0.25000000       0.016
   0.25000000 -0.25000000  0.25000000       0.016
   0.50000000 -0.25000000  0.25000000       0.016
  -0.25000000 -0.25000000  0.25000000       0.016
   0.00000000 -0.12500000  0.25000000       0.016
   0.25000000 -0.12500000  0.25000000       0.016
   0.50000000 -0.12500000  0.25000000       0.016
  -0.25000000 -0.12500000  0.25000000       0.016
   0.00000000  0.00000000  0.50000000       0.008
   0.25000000  0.00000000  0.50000000       0.016
   0.50000000 -0.00000000  0.50000000       0.008
   0.00000000  0.12500000  0.50000000       0.016
   0.25000000  0.12500000  0.50000000       0.016
   0.50000000  0.12500000  0.50000000       0.016
  -0.25000000  0.12500000  0.50000000       0.016
   0.00000000  0.25000000  0.50000000       0.016
   0.25000000  0.25000000  0.50000000       0.016
   0.50000000  0.25000000  0.50000000       0.016
  -0.25000000  0.25000000  0.50000000       0.016
   0.00000000  0.37500000  0.50000000       0.016
   0.25000000  0.37500000  0.50000000       0.016
   0.50000000  0.37500000  0.50000000       0.016
  -0.25000000  0.37500000  0.50000000       0.016
  -0.00000000  0.50000000  0.50000000       0.008
   0.25000000  0.50000000  0.50000000       0.016
   0.50000000  0.50000000  0.50000000       0.008
 
 position of ions in fractional coordinates (direct lattice) 
   0.24995688  0.64696605  0.12485518
   0.74999502  0.65730860  0.12501357
   0.74993915  0.65728029  0.62504129
   0.24998127  0.34645469  0.87503255
   0.24995861  0.64703922  0.62498766
   0.25003085  0.34668943  0.37506655
   0.11370419  0.11360377  0.46048194
   0.11369397  0.11346000  0.96046999
   0.60657483  0.10793011  0.46735089
   0.60648129  0.10790848  0.96734011
   0.38157213  0.88392480  0.03816374
   0.38164796  0.88421579  0.53817575
   0.89140196  0.89105070  0.03420380
   0.89142569  0.89103933  0.53414434
   0.38618666  0.11265877  0.28971682
   0.38614419  0.11256424  0.78969584
   0.89356620  0.10800161  0.28199744
   0.89356606  0.10794106  0.78203628
   0.11822200  0.88545587  0.21159116
   0.11824234  0.88515756  0.71160146
   0.60881022  0.89055330  0.21572018
   0.60869502  0.89024918  0.71569058
   0.13572342  0.38058212  0.20513057
   0.13556292  0.38022966  0.70518054
   0.62780203  0.38335197  0.20035458
   0.62784180  0.38320981  0.70038246
   0.36724191  0.61677196  0.29712138
   0.36718439  0.61644282  0.79712287
   0.86832740  0.63094089  0.29077170
   0.86809737  0.63122136  0.79087709
   0.36368284  0.37741209  0.04509892
   0.36373585  0.37791584  0.54522106
   0.87224534  0.38400000  0.05013165
   0.87226972  0.38406595  0.55017875
   0.13336255  0.61890352  0.45272023
   0.13333679  0.61872205  0.95258611
   0.63176982  0.63153869  0.45934126
   0.63168834  0.63161752  0.95936667
   0.00245280  0.17553220  0.12295807
   0.00236415  0.17539331  0.62292566
   0.49817308  0.17451428  0.12708739
   0.49812752  0.17454421  0.62704965
   0.00263284  0.82485596  0.37140546
   0.00258929  0.82481391  0.87144561
   0.49699202  0.82439282  0.37843392
   0.49690029  0.82430008  0.87841047
   0.75002623  0.33359576  0.87517095
   0.75007869  0.33368216  0.37514993
 
 position of ions in cartesian coordinates  (Angst):
   2.27821816  3.66602529  1.22473639
   6.85076967  3.72470288  1.20369120
   6.82009442  3.72482675  6.15315189
   2.23316857  1.96365779  8.65018353
   2.24806331  3.66672420  6.17523154
   2.26378255  1.96470365  3.70133406
   1.01198726  0.64399395  4.55290835
   0.98173181  0.64346353  9.50197432
   5.51859029  0.61192132  4.59860645
   5.48757286  0.61208299  9.54768782
   3.48700763  5.00867979  0.36074541
   3.45753757  5.01061289  5.31004485
   8.14934671  5.04912993  0.29849172
   8.11940452  5.04934970  5.24708597
   3.51398374  0.63858215  2.85028824
   3.48343393  0.63833070  7.79926627
   8.15414238  0.61226314  2.75092978
   8.12397611  0.61220434  7.70049809
   1.06836053  5.01741533  2.08930517
   1.03838325  5.01600923  7.03858997
   5.55425812  5.04637326  2.10798866
   5.52304374  5.04493420  7.05688460
   1.22876053  2.15663716  2.02442456
   1.19712711  2.15492429  6.97411021
   5.72882387  2.17240144  1.95489497
   5.69902318  2.17188022  6.90435299
   3.34032831  3.49505098  2.92457759
   3.30963957  3.49347023  7.87377868
   7.92285000  3.57540657  2.83906679
   7.89057747  3.57728004  7.78930437
   3.32297177  2.13861721  0.43006133
   3.29328643  2.14175596  5.38045192
   7.97317935  2.17602383  0.45687760
   7.94323673  2.17668182  5.40652654
   1.19225005  3.50718329  4.47533077
   1.16185984  3.50643920  9.42318815
   5.74949844  3.57885503  4.51832961
   5.71858913  3.57958598  9.46776865
   0.01502239  0.99469213  1.21702186
  -0.01594900  0.99418939  6.16588884
   4.54784930  0.98899930  1.23547453
   4.51727228  0.98945311  6.18428686
   0.00171990  4.67411064  3.67641697
  -0.02884346  4.67415666  8.62600016
   4.52192540  4.67156282  3.72362814
   4.49092532  4.67132156  8.67258393
   6.80578217  1.89086833  8.62893374
   6.83642588  1.89107364  3.67953948
 


--------------------------------------------------------------------------------------------------------


 k-point  1 :   0.0000 0.0000 0.0000  plane waves:   13029
 k-point  2 :   0.2500-0.0000 0.0000  plane waves:   13021
 k-point  3 :   0.5000-0.0000 0.0000  plane waves:   12998
 k-point  4 :  -0.0000 0.1250-0.0000  plane waves:   13031
 k-point  5 :   0.2500 0.1250 0.0000  plane waves:   13029
 k-point  6 :   0.5000 0.1250 0.0000  plane waves:   13008
 k-point  7 :  -0.2500 0.1250-0.0000  plane waves:   13026
 k-point  8 :  -0.0000 0.2500-0.0000  plane waves:   13015
 k-point  9 :   0.2500 0.2500 0.0000  plane waves:   13010
 k-point 10 :   0.5000 0.2500 0.0000  plane waves:   12996
 k-point 11 :  -0.2500 0.2500 0.0000  plane waves:   13009
 k-point 12 :   0.0000 0.3750 0.0000  plane waves:   13014
 k-point 13 :   0.2500 0.3750-0.0000  plane waves:   13018
 k-point 14 :   0.5000 0.3750 0.0000  plane waves:   13008
 k-point 15 :  -0.2500 0.3750 0.0000  plane waves:   13018
 k-point 16 :  -0.0000 0.5000-0.0000  plane waves:   12994
 k-point 17 :   0.2500 0.5000 0.0000  plane waves:   13016
 k-point 18 :   0.5000 0.5000 0.0000  plane waves:   13008
 k-point 19 :   0.0000 0.0000 0.2500  plane waves:   13045
 k-point 20 :   0.2500-0.0000 0.2500  plane waves:   13023
 k-point 21 :   0.5000-0.0000 0.2500  plane waves:   13024
 k-point 22 :  -0.2500 0.0000 0.2500  plane waves:   13039
 k-point 23 :   0.0000 0.1250 0.2500  plane waves:   13038
 k-point 24 :   0.2500 0.1250 0.2500  plane waves:   13025
 k-point 25 :   0.5000 0.1250 0.2500  plane waves:   13016
 k-point 26 :  -0.2500 0.1250 0.2500  plane waves:   13038
 k-point 27 :  -0.0000 0.2500 0.2500  plane waves:   13024
 k-point 28 :   0.2500 0.2500 0.2500  plane waves:   13020
 k-point 29 :   0.5000 0.2500 0.2500  plane waves:   13022
 k-point 30 :  -0.2500 0.2500 0.2500  plane waves:   13036
 k-point 31 :   0.0000 0.3750 0.2500  plane waves:   13009
 k-point 32 :   0.2500 0.3750 0.2500  plane waves:   13007
 k-point 33 :   0.5000 0.3750 0.2500  plane waves:   13025
 k-point 34 :  -0.2500 0.3750 0.2500  plane waves:   12997
 k-point 35 :   0.0000 0.5000 0.2500  plane waves:   13015
 k-point 36 :   0.2500 0.5000 0.2500  plane waves:   13009
 k-point 37 :   0.5000 0.5000 0.2500  plane waves:   13015
 k-point 38 :  -0.2500 0.5000 0.2500  plane waves:   13002
 k-point 39 :   0.0000-0.3750 0.2500  plane waves:   13008
 k-point 40 :   0.2500-0.3750 0.2500  plane waves:   13009
 k-point 41 :   0.5000-0.3750 0.2500  plane waves:   13023
 k-point 42 :  -0.2500-0.3750 0.2500  plane waves:   12997
 k-point 43 :   0.0000-0.2500 0.2500  plane waves:   13025
 k-point 44 :   0.2500-0.2500 0.2500  plane waves:   13021
 k-point 45 :   0.5000-0.2500 0.2500  plane waves:   13022
 k-point 46 :  -0.2500-0.2500 0.2500  plane waves:   13035
 k-point 47 :   0.0000-0.1250 0.2500  plane waves:   13038
 k-point 48 :   0.2500-0.1250 0.2500  plane waves:   13026
 k-point 49 :   0.5000-0.1250 0.2500  plane waves:   13015
 k-point 50 :  -0.2500-0.1250 0.2500  plane waves:   13039
 k-point 51 :   0.0000 0.0000 0.5000  plane waves:   13064
 k-point 52 :   0.2500 0.0000 0.5000  plane waves:   13035
 k-point 53 :   0.5000-0.0000 0.5000  plane waves:   13040
 k-point 54 :   0.0000 0.1250 0.5000  plane waves:   13024
 k-point 55 :   0.2500 0.1250 0.5000  plane waves:   13038
 k-point 56 :   0.5000 0.1250 0.5000  plane waves:   13033
 k-point 57 :  -0.2500 0.1250 0.5000  plane waves:   13038
 k-point 58 :   0.0000 0.2500 0.5000  plane waves:   13022
 k-point 59 :   0.2500 0.2500 0.5000  plane waves:   13029
 k-point 60 :   0.5000 0.2500 0.5000  plane waves:   13032
 k-point 61 :  -0.2500 0.2500 0.5000  plane waves:   13030
 k-point 62 :   0.0000 0.3750 0.5000  plane waves:   13009
 k-point 63 :   0.2500 0.3750 0.5000  plane waves:   13001
 k-point 64 :   0.5000 0.3750 0.5000  plane waves:   13036
 k-point 65 :  -0.2500 0.3750 0.5000  plane waves:   13001
 k-point 66 :  -0.0000 0.5000 0.5000  plane waves:   13036
 k-point 67 :   0.2500 0.5000 0.5000  plane waves:   12987
 k-point 68 :   0.5000 0.5000 0.5000  plane waves:   12968

 maximum and minimum number of plane-waves per node :      3305     3187

 maximum number of plane-waves:     13064
 maximum index in each direction: 
   IXMAX=   16   IYMAX=   10   IZMAX=   18
   IXMIN=  -17   IYMIN=  -10   IZMIN=  -18


 real space projection operators:
  total allocation   :       6229.94 KBytes
  max/ min on nodes  :       1625.45       1492.16


 parallel 3D FFT for wavefunctions:
    minimum data exchange during FFTs selected (reduces bandwidth)
 parallel 3D FFT for charge:
    minimum data exchange during FFTs selected (reduces bandwidth)


 total amount of memory used by VASP MPI-rank0   142986. kBytes
=======================================================================

   base      :      30000. kBytes
   nonlr-proj:       4224. kBytes
   fftplans  :       1587. kBytes
   grid      :       2924. kBytes
   one-center:        186. kBytes
   wavefun   :     104065. kBytes
 
     INWAV:  cpu time    0.0000: real time    0.0002
 Broyden mixing: mesh for mixing (old mesh)
   NGX = 33   NGY = 21   NGZ = 37
  (NGX  =100   NGY  = 64   NGZ  =108)
  gives a total of  25641 points

 initial charge density was supplied:
 charge density of overlapping atoms calculated
 number of electron     370.0000000 magnetization 
 keeping initial charge density in first step


--------------------------------------------------------------------------------------------------------


 Maximum index for non-local projection operator          781
 Maximum index for augmentation-charges         1026 (set IRDMAX)


--------------------------------------------------------------------------------------------------------


 First call to EWALD:  gamma=   0.221
 Maximum number of real-space cells 2x 4x 2
 Maximum number of reciprocal cells 3x 2x 3

    FEWALD:  cpu time    0.0017: real time    0.0027


--------------------------------------- Iteration      1(   1)  ---------------------------------------


    POTLOK:  cpu time    0.0158: real time    0.0185
    SETDIJ:  cpu time    0.0041: real time    0.0041
     EDDAV:  cpu time   19.3026: real time   19.4767
 BZINTS: Fermi energy: 23.457482;370.000000 electrons
         Band energy:1015.464434;  BLOECHL correction: -0.063745
       DOS:  cpu time    0.1196: real time    0.1196
    --------------------------------------------
      LOOP:  cpu time   19.4422: real time   19.6189

 eigenvalue-minimisations  : 33816
 total energy-change (2. order) : 0.4380194E+04  (-0.2087430E+05)
 number of electron     370.0000000 magnetization 
 augmentation part      370.0000000 magnetization 

 Free energy of the ion-electron system (eV)
  ---------------------------------------------------
  alpha Z        PSCENC =      1845.13623167
  Ewald energy   TEWEN  =    -27863.66631309
  -Hartree energ DENC   =    -15860.70911023
  -exchange      EXHF   =         0.00000000
  -V(xc)+E(xc)   XCENC  =      1246.42339819
  PAW double counting   =     37467.60136202   -38188.76428185
  entropy T*S    EENTRO =         0.00000000
  eigenvalues    EBANDS =      1015.46443407
  atomic energy  EATOM  =     44718.70844369
  Solvation  Ediel_sol  =         0.00000000
  ---------------------------------------------------
  free energy    TOTEN  =      4380.19416447 eV

  energy without entropy =     4380.19416447  energy(sigma->0) =     4380.19416447


--------------------------------------------------------------------------------------------------------




--------------------------------------- Iteration      1(   2)  ---------------------------------------


     EDDAV:  cpu time   18.6470: real time   18.6553
 BZINTS: Fermi energy:  8.528821;370.000000 electrons
         Band energy:***********;  BLOECHL correction: -0.025977
       DOS:  cpu time    0.1198: real time    0.1198
    --------------------------------------------
      LOOP:  cpu time   18.7668: real time   18.7751

 eigenvalue-minimisations  : 32560
 total energy-change (2. order) :-0.4266282E+04  (-0.4015719E+04)
 number of electron     370.0000000 magnetization 
 augmentation part      370.0000000 magnetization 

 Free energy of the ion-electron system (eV)
  ---------------------------------------------------
  alpha Z        PSCENC =      1845.13623167
  Ewald energy   TEWEN  =    -27863.66631309
  -Hartree energ DENC   =    -15860.70911023
  -exchange      EXHF   =         0.00000000
  -V(xc)+E(xc)   XCENC  =      1246.42339819
  PAW double counting   =     37467.60136202   -38188.76428185
  entropy T*S    EENTRO =         0.00000000
  eigenvalues    EBANDS =     -3250.81723948
  atomic energy  EATOM  =     44718.70844369
  Solvation  Ediel_sol  =         0.00000000
  ---------------------------------------------------
  free energy    TOTEN  =       113.91249091 eV

  energy without entropy =      113.91249091  energy(sigma->0) =      113.91249091


--------------------------------------------------------------------------------------------------------




--------------------------------------- Iteration      1(   3)  ---------------------------------------


     EDDAV:  cpu time   19.4116: real time   19.4200
 BZINTS: Fermi energy:  6.768396;370.000000 electrons
         Band energy:***********;  BLOECHL correction: -0.010851
       DOS:  cpu time    0.1342: real time    0.1342
    --------------------------------------------
      LOOP:  cpu time   19.5459: real time   19.5543

 eigenvalue-minimisations  : 34200
 total energy-change (2. order) :-0.5578823E+03  (-0.5357966E+03)
 number of electron     370.0000000 magnetization 
 augmentation part      370.0000000 magnetization 

 Free energy of the ion-electron system (eV)
  ---------------------------------------------------
  alpha Z        PSCENC =      1845.13623167
  Ewald energy   TEWEN  =    -27863.66631309
  -Hartree energ DENC   =    -15860.70911023
  -exchange      EXHF   =         0.00000000
  -V(xc)+E(xc)   XCENC  =      1246.42339819
  PAW double counting   =     37467.60136202   -38188.76428185
  entropy T*S    EENTRO =         0.00000000
  eigenvalues    EBANDS =     -3808.69956739
  atomic energy  EATOM  =     44718.70844369
  Solvation  Ediel_sol  =         0.00000000
  ---------------------------------------------------
  free energy    TOTEN  =      -443.96983700 eV

  energy without entropy =     -443.96983700  energy(sigma->0) =     -443.96983700


--------------------------------------------------------------------------------------------------------




--------------------------------------- Iteration      1(   4)  ---------------------------------------


     EDDAV:  cpu time   20.5975: real time   20.6070
 BZINTS: Fermi energy:  6.617144;370.000000 electrons
         Band energy:***********;  BLOECHL correction: -0.013405
       DOS:  cpu time    0.1355: real time    0.1355
    --------------------------------------------
      LOOP:  cpu time   20.7330: real time   20.7426

 eigenvalue-minimisations  : 36840
 total energy-change (2. order) :-0.2690018E+02  (-0.2600939E+02)
 number of electron     370.0000000 magnetization 
 augmentation part      370.0000000 magnetization 

 Free energy of the ion-electron system (eV)
  ---------------------------------------------------
  alpha Z        PSCENC =      1845.13623167
  Ewald energy   TEWEN  =    -27863.66631309
  -Hartree energ DENC   =    -15860.70911023
  -exchange      EXHF   =         0.00000000
  -V(xc)+E(xc)   XCENC  =      1246.42339819
  PAW double counting   =     37467.60136202   -38188.76428185
  entropy T*S    EENTRO =         0.00000000
  eigenvalues    EBANDS =     -3835.59974802
  atomic energy  EATOM  =     44718.70844369
  Solvation  Ediel_sol  =         0.00000000
  ---------------------------------------------------
  free energy    TOTEN  =      -470.87001762 eV

  energy without entropy =     -470.87001762  energy(sigma->0) =     -470.87001762


--------------------------------------------------------------------------------------------------------




--------------------------------------- Iteration      1(   5)  ---------------------------------------


     EDDAV:  cpu time   21.4829: real time   21.4906
 BZINTS: Fermi energy:  6.612247;370.000000 electrons
         Band energy:***********;  BLOECHL correction: -0.013588
       DOS:  cpu time    0.1415: real time    0.1417
    CHARGE:  cpu time    0.4534: real time    0.4535
    MIXING:  cpu time    0.0011: real time    0.0011
    --------------------------------------------
      LOOP:  cpu time   22.0789: real time   22.0869

 eigenvalue-minimisations  : 38960
 total energy-change (2. order) :-0.9066282E+00  (-0.9029405E+00)
 number of electron     369.9999685 magnetization 
 augmentation part      102.0430043 magnetization 

 Broyden mixing:
  rms(total) = 0.15041E+02    rms(broyden)= 0.15039E+02
  rms(prec ) = 0.16108E+02
  weight for this iteration     100.00

 Free energy of the ion-electron system (eV)
  ---------------------------------------------------
  alpha Z        PSCENC =      1845.13623167
  Ewald energy   TEWEN  =    -27863.66631309
  -Hartree energ DENC   =    -15860.70911023
  -exchange      EXHF   =         0.00000000
  -V(xc)+E(xc)   XCENC  =      1246.42339819
  PAW double counting   =     37467.60136202   -38188.76428185
  entropy T*S    EENTRO =         0.00000000
  eigenvalues    EBANDS =     -3836.50637621
  atomic energy  EATOM  =     44718.70844369
  Solvation  Ediel_sol  =         0.00000000
  ---------------------------------------------------
  free energy    TOTEN  =      -471.77664582 eV

  energy without entropy =     -471.77664582  energy(sigma->0) =     -471.77664582


--------------------------------------------------------------------------------------------------------




--------------------------------------- Iteration      1(   6)  ---------------------------------------


    POTLOK:  cpu time    0.0130: real time    0.0131
    SETDIJ:  cpu time    0.0038: real time    0.0038
     EDDAV:  cpu time   21.6987: real time   21.7072
 BZINTS: Fermi energy:  4.809099;370.000000 electrons
         Band energy:***********;  BLOECHL correction: -0.001602
       DOS:  cpu time    0.1465: real time    0.1465
    CHARGE:  cpu time    0.4544: real time    0.4545
    MIXING:  cpu time    0.0008: real time    0.0008
    --------------------------------------------
      LOOP:  cpu time   22.3173: real time   22.3259

 eigenvalue-minimisations  : 39560
 total energy-change (2. order) : 0.3069314E+02  (-0.6389177E+02)
 number of electron     369.9999487 magnetization 
 augmentation part      104.9909674 magnetization 

 Broyden mixing:
  rms(total) = 0.14202E+02    rms(broyden)= 0.14198E+02
  rms(prec ) = 0.17205E+02
  weight for this iteration     100.00

 eigenvalues of (default mixing * dielectric matrix)
  average eigenvalue GAMMA=   0.5498
  0.5498

 Free energy of the ion-electron system (eV)
  ---------------------------------------------------
  alpha Z        PSCENC =      1845.13623167
  Ewald energy   TEWEN  =    -27863.66631309
  -Hartree energ DENC   =    -15811.80161461
  -exchange      EXHF   =         0.00000000
  -V(xc)+E(xc)   XCENC  =      1274.53308251
  PAW double counting   =     41941.05986213   -42628.79628247
  entropy T*S    EENTRO =         0.00000000
  eigenvalues    EBANDS =     -3916.25691993
  atomic energy  EATOM  =     44718.70844369
  Solvation  Ediel_sol  =         0.00000000
  ---------------------------------------------------
  free energy    TOTEN  =      -441.08351011 eV

  energy without entropy =     -441.08351011  energy(sigma->0) =     -441.08351011


--------------------------------------------------------------------------------------------------------




--------------------------------------- Iteration      1(   7)  ---------------------------------------


    POTLOK:  cpu time    0.0131: real time    0.0145
    SETDIJ:  cpu time    0.0038: real time    0.0038
     EDDAV:  cpu time   20.9707: real time   20.9772
 BZINTS: Fermi energy:  6.123957;370.000000 electrons
         Band energy:***********;  BLOECHL correction: -0.010981
       DOS:  cpu time    0.1351: real time    0.1352
    CHARGE:  cpu time    0.4539: real time    0.4541
    MIXING:  cpu time    0.0007: real time    0.0007
    --------------------------------------------
      LOOP:  cpu time   21.5774: real time   21.5856

 eigenvalue-minimisations  : 37736
 total energy-change (2. order) : 0.2809118E+01  (-0.2631683E+02)
 number of electron     369.9999675 magnetization 
 augmentation part       99.8699507 magnetization 

 Broyden mixing:
  rms(total) = 0.13847E+02    rms(broyden)= 0.13843E+02
  rms(prec ) = 0.15156E+02
  weight for this iteration     100.00

 eigenvalues of (default mixing * dielectric matrix)
  average eigenvalue GAMMA=   0.5640
  0.8883  0.2398

 Free energy of the ion-electron system (eV)
  ---------------------------------------------------
  alpha Z        PSCENC =      1845.13623167
  Ewald energy   TEWEN  =    -27863.66631309
  -Hartree energ DENC   =    -15802.97037257
  -exchange      EXHF   =         0.00000000
  -V(xc)+E(xc)   XCENC  =      1272.64312879
  PAW double counting   =     44175.05252963   -44904.42893141
  entropy T*S    EENTRO =         0.00000000
  eigenvalues    EBANDS =     -3878.74910877
  atomic energy  EATOM  =     44718.70844369
  Solvation  Ediel_sol  =         0.00000000
  ---------------------------------------------------
  free energy    TOTEN  =      -438.27439207 eV

  energy without entropy =     -438.27439207  energy(sigma->0) =     -438.27439207


--------------------------------------------------------------------------------------------------------




--------------------------------------- Iteration      1(   8)  ---------------------------------------


    POTLOK:  cpu time    0.0129: real time    0.0131
    SETDIJ:  cpu time    0.0040: real time    0.0040
     EDDAV:  cpu time   22.0474: real time   22.0541
 BZINTS: Fermi energy:  4.645015;370.000000 electrons
         Band energy:***********;  BLOECHL correction: -0.009155
       DOS:  cpu time    0.1313: real time    0.1313
    CHARGE:  cpu time    0.4542: real time    0.4544
    MIXING:  cpu time    0.0007: real time    0.0007
    --------------------------------------------
      LOOP:  cpu time   22.6505: real time   22.6576

 eigenvalue-minimisations  : 40328
 total energy-change (2. order) : 0.1122957E+02  (-0.1151262E+02)
 number of electron     369.9999616 magnetization 
 augmentation part      106.0671855 magnetization 

 Broyden mixing:
  rms(total) = 0.87752E+01    rms(broyden)= 0.87738E+01
  rms(prec ) = 0.99106E+01
  weight for this iteration     100.00

 eigenvalues of (default mixing * dielectric matrix)
  average eigenvalue GAMMA=   0.6043
  1.0854  0.3637  0.3637

 Free energy of the ion-electron system (eV)
  ---------------------------------------------------
  alpha Z        PSCENC =      1845.13623167
  Ewald energy   TEWEN  =    -27863.66631309
  -Hartree energ DENC   =    -15535.40303969
  -exchange      EXHF   =         0.00000000
  -V(xc)+E(xc)   XCENC  =      1262.44723225
  PAW double counting   =     46422.31307934   -47165.36790248
  entropy T*S    EENTRO =         0.00000000
  eigenvalues    EBANDS =     -4111.21255282
  atomic energy  EATOM  =     44718.70844369
  Solvation  Ediel_sol  =         0.00000000
  ---------------------------------------------------
  free energy    TOTEN  =      -427.04482114 eV

  energy without entropy =     -427.04482114  energy(sigma->0) =     -427.04482114


--------------------------------------------------------------------------------------------------------




--------------------------------------- Iteration      1(   9)  ---------------------------------------


    POTLOK:  cpu time    0.0129: real time    0.0130
    SETDIJ:  cpu time    0.0038: real time    0.0038
     EDDAV:  cpu time   20.6102: real time   20.6167
 BZINTS: Fermi energy:  6.409140;370.000000 electrons
         Band energy:***********;  BLOECHL correction: -0.009477
       DOS:  cpu time    0.1411: real time    0.1411
    CHARGE:  cpu time    0.4541: real time    0.4543
    MIXING:  cpu time    0.0007: real time    0.0007
    --------------------------------------------
      LOOP:  cpu time   21.2229: real time   21.2296

 eigenvalue-minimisations  : 37056
 total energy-change (2. order) :-0.3185054E+02  (-0.1156779E+02)
 number of electron     369.9999657 magnetization 
 augmentation part      101.3839294 magnetization 

 Broyden mixing:
  rms(total) = 0.11417E+02    rms(broyden)= 0.11414E+02
  rms(prec ) = 0.16127E+02
  weight for this iteration     100.00

 eigenvalues of (default mixing * dielectric matrix)
  average eigenvalue GAMMA=   0.7149
  1.7871  0.5760  0.3333  0.1632

 Free energy of the ion-electron system (eV)
  ---------------------------------------------------
  alpha Z        PSCENC =      1845.13623167
  Ewald energy   TEWEN  =    -27863.66631309
  -Hartree energ DENC   =    -15766.32046587
  -exchange      EXHF   =         0.00000000
  -V(xc)+E(xc)   XCENC  =      1270.39695694
  PAW double counting   =     48514.99745572   -49296.47094754
  entropy T*S    EENTRO =         0.00000000
  eigenvalues    EBANDS =     -3881.67672090
  atomic energy  EATOM  =     44718.70844369
  Solvation  Ediel_sol  =         0.00000000
  ---------------------------------------------------
  free energy    TOTEN  =      -458.89535938 eV

  energy without entropy =     -458.89535938  energy(sigma->0) =     -458.89535938


--------------------------------------------------------------------------------------------------------




--------------------------------------- Iteration      1(  10)  ---------------------------------------


    POTLOK:  cpu time    0.0128: real time    0.0129
    SETDIJ:  cpu time    0.0041: real time    0.0041
     EDDAV:  cpu time   22.2789: real time   22.2880
 BZINTS: Fermi energy:  6.086498;370.000000 electrons
         Band energy:***********;  BLOECHL correction: -0.010191
       DOS:  cpu time    0.1311: real time    0.1311
    CHARGE:  cpu time    0.4541: real time    0.4542
    MIXING:  cpu time    0.0009: real time    0.0008
    --------------------------------------------
      LOOP:  cpu time   22.8818: real time   22.8912

 eigenvalue-minimisations  : 40760
 total energy-change (2. order) : 0.1544141E+02  (-0.9101006E+01)
 number of electron     369.9999550 magnetization 
 augmentation part       98.9559137 magnetization 

 Broyden mixing:
  rms(total) = 0.10582E+02    rms(broyden)= 0.10581E+02
  rms(prec ) = 0.15109E+02
  weight for this iteration     100.00

 eigenvalues of (default mixing * dielectric matrix)
  average eigenvalue GAMMA=   0.6316
  1.8454  0.4640  0.4640  0.2612  0.1234

 Free energy of the ion-electron system (eV)
  ---------------------------------------------------
  alpha Z        PSCENC =      1845.13623167
  Ewald energy   TEWEN  =    -27863.66631309
  -Hartree energ DENC   =    -15918.82878264
  -exchange      EXHF   =         0.00000000
  -V(xc)+E(xc)   XCENC  =      1277.40464010
  PAW double counting   =     51616.96923691   -52439.12940983
  entropy T*S    EENTRO =         0.00000000
  eigenvalues    EBANDS =     -3680.04799192
  atomic energy  EATOM  =     44718.70844369
  Solvation  Ediel_sol  =         0.00000000
  ---------------------------------------------------
  free energy    TOTEN  =      -443.45394513 eV

  energy without entropy =     -443.45394513  energy(sigma->0) =     -443.45394513


--------------------------------------------------------------------------------------------------------




--------------------------------------- Iteration      1(  11)  ---------------------------------------


    POTLOK:  cpu time    0.0133: real time    0.0143
    SETDIJ:  cpu time    0.0038: real time    0.0038
     EDDAV:  cpu time   22.2909: real time   22.2979
 BZINTS: Fermi energy:  6.184875;370.000000 electrons
         Band energy:***********;  BLOECHL correction: -0.006144
       DOS:  cpu time    0.1421: real time    0.1421
    CHARGE:  cpu time    0.4522: real time    0.4526
    MIXING:  cpu time    0.0009: real time    0.0009
    --------------------------------------------
      LOOP:  cpu time   22.9032: real time   22.9116

 eigenvalue-minimisations  : 40784
 total energy-change (2. order) : 0.1237909E+02  (-0.3427330E+01)
 number of electron     369.9999683 magnetization 
 augmentation part      102.5380623 magnetization 

 Broyden mixing:
  rms(total) = 0.99600E+01    rms(broyden)= 0.99596E+01
  rms(prec ) = 0.14302E+02
  weight for this iteration     100.00

 eigenvalues of (default mixing * dielectric matrix)
  average eigenvalue GAMMA=   0.5784
  1.8805  0.5253  0.5253  0.2975  0.1208  0.1208

 Free energy of the ion-electron system (eV)
  ---------------------------------------------------
  alpha Z        PSCENC =      1845.13623167
  Ewald energy   TEWEN  =    -27863.66631309
  -Hartree energ DENC   =    -15735.01342134
  -exchange      EXHF   =         0.00000000
  -V(xc)+E(xc)   XCENC  =      1272.10037040
  PAW double counting   =     51994.99100788   -52804.68554080
  entropy T*S    EENTRO =         0.00000000
  eigenvalues    EBANDS =     -3858.64563470
  atomic energy  EATOM  =     44718.70844369
  Solvation  Ediel_sol  =         0.00000000
  ---------------------------------------------------
  free energy    TOTEN  =      -431.07485628 eV

  energy without entropy =     -431.07485628  energy(sigma->0) =     -431.07485628


--------------------------------------------------------------------------------------------------------




--------------------------------------- Iteration      1(  12)  ---------------------------------------


    POTLOK:  cpu time    0.0128: real time    0.0129
    SETDIJ:  cpu time    0.0038: real time    0.0038
     EDDAV:  cpu time   22.9297: real time   22.9368
 BZINTS: Fermi energy:  3.153932;370.000000 electrons
         Band energy:***********;  BLOECHL correction: -0.009634
       DOS:  cpu time    0.1362: real time    0.1362
    CHARGE:  cpu time    0.4523: real time    0.4523
    MIXING:  cpu time    0.0009: real time    0.0009
    --------------------------------------------
      LOOP:  cpu time   23.5358: real time   23.5431

 eigenvalue-minimisations  : 42144
 total energy-change (2. order) : 0.3727941E+02  (-0.5457010E+01)
 number of electron     369.9999578 magnetization 
 augmentation part      108.1558178 magnetization 

 Broyden mixing:
  rms(total) = 0.40770E+01    rms(broyden)= 0.40752E+01
  rms(prec ) = 0.52984E+01
  weight for this iteration     100.00

 eigenvalues of (default mixing * dielectric matrix)
  average eigenvalue GAMMA=   0.5581
  1.7165  0.6840  0.6840  0.3754  0.2000  0.1233  0.1233

 Free energy of the ion-electron system (eV)
  ---------------------------------------------------
  alpha Z        PSCENC =      1845.13623167
  Ewald energy   TEWEN  =    -27863.66631309
  -Hartree energ DENC   =    -15612.03141508
  -exchange      EXHF   =         0.00000000
  -V(xc)+E(xc)   XCENC  =      1268.62841558
  PAW double counting   =     52196.04064893   -52996.12372712
  entropy T*S    EENTRO =         0.00000000
  eigenvalues    EBANDS =     -3950.48772963
  atomic energy  EATOM  =     44718.70844369
  Solvation  Ediel_sol  =         0.00000000
  ---------------------------------------------------
  free energy    TOTEN  =      -393.79544505 eV

  energy without entropy =     -393.79544505  energy(sigma->0) =     -393.79544505


--------------------------------------------------------------------------------------------------------




--------------------------------------- Iteration      1(  13)  ---------------------------------------


    POTLOK:  cpu time    0.0128: real time    0.0129
    SETDIJ:  cpu time    0.0038: real time    0.0038
     EDDAV:  cpu time   22.2933: real time   22.3003
 BZINTS: Fermi energy:  3.736843;370.000000 electrons
         Band energy:***********;  BLOECHL correction: -0.004758
       DOS:  cpu time    0.1333: real time    0.1334
    CHARGE:  cpu time    0.4547: real time    0.4547
    MIXING:  cpu time    0.0010: real time    0.0010
    --------------------------------------------
      LOOP:  cpu time   22.8988: real time   22.9061

 eigenvalue-minimisations  : 40728
 total energy-change (2. order) : 0.1149564E+02  (-0.1814422E+01)
 number of electron     369.9999626 magnetization 
 augmentation part      105.0816466 magnetization 

 Broyden mixing:
  rms(total) = 0.39598E+01    rms(broyden)= 0.39561E+01
  rms(prec ) = 0.47967E+01
  weight for this iteration     100.00

 eigenvalues of (default mixing * dielectric matrix)
  average eigenvalue GAMMA=   0.5550
  1.8658  0.6603  0.6603  0.3856  0.3856  0.2345  0.1239  0.1239

 Free energy of the ion-electron system (eV)
  ---------------------------------------------------
  alpha Z        PSCENC =      1845.13623167
  Ewald energy   TEWEN  =    -27863.66631309
  -Hartree energ DENC   =    -15750.79845119
  -exchange      EXHF   =         0.00000000
  -V(xc)+E(xc)   XCENC  =      1270.41520911
  PAW double counting   =     52169.32171295   -52976.96586797
  entropy T*S    EENTRO =         0.00000000
  eigenvalues    EBANDS =     -3794.45076979
  atomic energy  EATOM  =     44718.70844369
[...]
  0.000   0.000   0.000   0.002   0.000   0.000   0.003  -0.003   0.007  -0.010  -0.007  -0.001   0.002  -0.008   0.004   0.007


------------------------ aborting loop because EDIFF is reached ----------------------------------------


 


 total charge     
 
# of ion       s       p       d       tot
------------------------------------------
    1        0.215   6.203   7.864  14.283
    2        0.207   6.190   7.877  14.275
    3        0.207   6.190   7.878  14.275
    4        0.216   6.205   7.868  14.289
    5        0.215   6.203   7.864  14.283
    6        0.216   6.205   7.868  14.289
    7        1.570   3.464   0.000   5.034
    8        1.570   3.464   0.000   5.034
    9        1.573   3.473   0.000   5.046
   10        1.573   3.473   0.000   5.046
   11        1.570   3.459   0.000   5.029
   12        1.570   3.459   0.000   5.029
   13        1.572   3.454   0.000   5.026
   14        1.572   3.455   0.000   5.026
   15        1.571   3.463   0.000   5.033
   16        1.571   3.463   0.000   5.033
   17        1.573   3.475   0.000   5.047
   18        1.573   3.475   0.000   5.047
   19        1.570   3.459   0.000   5.029
   20        1.570   3.459   0.000   5.029
   21        1.572   3.455   0.000   5.027
   22        1.572   3.455   0.000   5.027
   23        1.574   3.444   0.000   5.018
   24        1.574   3.444   0.000   5.018
   25        1.578   3.436   0.000   5.015
   26        1.578   3.436   0.000   5.015
   27        1.575   3.442   0.000   5.017
   28        1.575   3.442   0.000   5.017
   29        1.577   3.440   0.000   5.017
   30        1.577   3.440   0.000   5.017
   31        1.574   3.444   0.000   5.018
   32        1.574   3.444   0.000   5.018
   33        1.578   3.437   0.000   5.015
   34        1.578   3.437   0.000   5.015
   35        1.575   3.442   0.000   5.017
   36        1.575   3.442   0.000   5.017
   37        1.577   3.440   0.000   5.017
   38        1.577   3.440   0.000   5.017
   39        0.699   1.006   4.145   5.850
   40        0.699   1.007   4.147   5.852
   41        0.698   1.003   4.143   5.843
   42        0.697   1.003   4.142   5.842
   43        0.695   1.005   4.137   5.836
   44        0.695   1.005   4.137   5.837
   45        0.695   1.006   4.136   5.837
   46        0.695   1.006   4.136   5.837
   47        0.174   6.134   8.894  15.201
   48        0.174   6.134   8.895  15.202
--------------------------------------------------
tot         57.555 167.961  98.130 323.647
 
    CHARGE:  cpu time    0.4534: real time    0.4534
    FORLOC:  cpu time    0.0053: real time    0.0052
    FORNL :  cpu time    2.7938: real time    2.7945
    STRESS:  cpu time    8.4149: real time    8.4171
    FORCOR:  cpu time    0.0181: real time    0.0181
    FORHAR:  cpu time    0.0078: real time    0.0078
    MIXING:  cpu time    0.0043: real time    0.0043
    OFIELD:  cpu time    0.0001: real time    0.0001

  FORCE on cell =-STRESS in cart. coord.  units (eV):
  Direction    XX          YY          ZZ          XY          YZ          ZX
  --------------------------------------------------------------------------------------
  Alpha Z  1845.13623  1845.13623  1845.13623
  Ewald  -10703.65648 -9788.43811 -7371.70498     0.93556    -9.94065   119.23863
  Hartree  4199.81839  4951.53106  6754.32698    -0.45756    -5.91871    20.24728
  E(xc)   -2154.83506 -2152.46597 -2154.49140     0.03679    -0.01103    -1.08931
  Local      68.47749 -1585.91933 -5752.12534    -0.16101    15.15518  -126.85457
  n-local -1504.88970 -1514.25874 -1493.87576    -0.04080    -0.23161     0.91123
  augment  1695.71160  1700.79470  1687.05312    -0.16684     0.29148    -4.12907
  Kinetic  6554.11705  6543.46364  6485.55674    -0.12803     0.64387    -8.35064
  Fock        0.00000     0.00000     0.00000     0.00000     0.00000     0.00000
  -------------------------------------------------------------------------------------
  Total      -0.12048    -0.15651    -0.12439     0.01811    -0.01147    -0.02644
  in kB      -0.37636    -0.48894    -0.38860     0.05657    -0.03585    -0.08261
  external pressure =       -0.42 kB  Pullay stress =        0.00 kB


 VOLUME and BASIS-vectors are now :
 -----------------------------------------------------------------------------
  energy-cutoff  :      500.00
  volume of cell :      512.87
      direct lattice vectors                 reciprocal lattice vectors
     9.144423289  0.000146579 -0.045228287     0.109359564 -0.000001185  0.000666490
     0.000059700  5.666321561  0.000276693    -0.000002879  0.176481337 -0.000010154
    -0.060325398  0.000568500  9.898367703     0.000499693 -0.000004939  0.101029804

  length of vectors
     9.144535139  5.666321568  9.898551544     0.109361595  0.176481337  0.101031040


 FORCES acting on ions
    electron-ion (+dipol)            ewald-force                    non-local-force                 convergence-correction
 -----------------------------------------------------------------------------------------------
   -.200E+01 -.261E+03 -.142E+01   0.195E+01 0.263E+03 0.141E+01   0.429E-01 -.139E+01 0.207E-01   0.155E-02 0.938E-02 -.126E-01
   0.681E+00 -.255E+03 -.318E+00   -.690E+00 0.256E+03 0.301E+00   0.120E-01 -.485E+00 0.368E-01   -.184E-02 -.597E-01 -.200E-01
   0.167E+00 -.255E+03 0.319E+00   -.190E+00 0.256E+03 -.360E+00   0.253E-01 -.479E+00 0.219E-01   0.168E-02 -.592E-01 0.196E-01
   0.700E+00 0.259E+03 0.846E+00   -.637E+00 -.261E+03 -.822E+00   -.636E-01 0.127E+01 -.149E-01   0.130E-02 -.244E-01 -.972E-02
   -.171E+01 -.261E+03 -.443E+00   0.166E+01 0.263E+03 0.416E+00   0.511E-01 -.139E+01 0.140E-01   -.123E-02 0.958E-02 0.128E-01
   0.398E+00 0.259E+03 0.739E+00   -.339E+00 -.260E+03 -.736E+00   -.557E-01 0.128E+01 -.133E-01   -.115E-02 -.249E-01 0.950E-02
   0.733E+02 0.122E+03 -.448E+02   -.624E+02 -.122E+03 0.384E+02   -.108E+02 -.987E-01 0.643E+01   -.383E-01 -.357E-02 0.480E-02
   0.735E+02 0.122E+03 -.451E+02   -.627E+02 -.122E+03 0.387E+02   -.108E+02 -.879E-01 0.642E+01   -.386E-01 0.569E-03 -.481E-02
   0.583E+02 0.102E+03 -.422E+02   -.449E+02 -.997E+02 0.346E+02   -.135E+02 -.201E+01 0.768E+01   0.612E-01 0.399E-01 -.223E-01
   0.583E+02 0.102E+03 -.422E+02   -.449E+02 -.997E+02 0.346E+02   -.135E+02 -.200E+01 0.770E+01   0.702E-01 0.478E-01 -.328E-01
   -.716E+02 -.125E+03 0.414E+02   0.601E+02 0.126E+03 -.345E+02   0.114E+02 -.139E+01 -.682E+01   0.402E-01 0.202E-01 -.143E-01
   -.710E+02 -.124E+03 0.416E+02   0.595E+02 0.126E+03 -.348E+02   0.115E+02 -.132E+01 -.681E+01   0.322E-01 0.149E-01 -.201E-02
   -.532E+02 -.973E+02 0.396E+02   0.411E+02 0.958E+02 -.333E+02   0.121E+02 0.147E+01 -.628E+01   -.280E-01 0.196E-01 -.177E-01
   -.530E+02 -.970E+02 0.397E+02   0.409E+02 0.955E+02 -.334E+02   0.121E+02 0.152E+01 -.629E+01   -.213E-01 0.199E-01 -.962E-02
   -.724E+02 0.122E+03 0.454E+02   0.615E+02 -.122E+03 -.391E+02   0.109E+02 -.300E+00 -.624E+01   0.394E-01 -.311E-02 -.170E-02
   -.727E+02 0.122E+03 0.456E+02   0.618E+02 -.122E+03 -.394E+02   0.109E+02 -.299E+00 -.623E+01   0.374E-01 0.544E-04 0.178E-02
   -.569E+02 0.101E+03 0.416E+02   0.432E+02 -.990E+02 -.340E+02   0.137E+02 -.204E+01 -.763E+01   -.622E-01 0.395E-01 0.225E-01
   -.568E+02 0.101E+03 0.417E+02   0.432E+02 -.989E+02 -.341E+02   0.137E+02 -.206E+01 -.764E+01   -.690E-01 0.478E-01 0.327E-01
   0.690E+02 -.123E+03 -.414E+02   -.574E+02 0.124E+03 0.346E+02   -.116E+02 -.113E+01 0.673E+01   -.386E-01 0.192E-01 0.713E-02
   0.697E+02 -.124E+03 -.413E+02   -.581E+02 0.125E+03 0.346E+02   -.115E+02 -.117E+01 0.672E+01   -.335E-01 0.160E-01 0.897E-02
   0.543E+02 -.979E+02 -.403E+02   -.422E+02 0.963E+02 0.342E+02   -.121E+02 0.157E+01 0.603E+01   0.257E-01 0.184E-01 0.784E-02
   0.544E+02 -.983E+02 -.403E+02   -.424E+02 0.967E+02 0.342E+02   -.120E+02 0.155E+01 0.605E+01   0.232E-01 0.209E-01 0.197E-01
   0.208E+03 0.121E+03 0.574E+02   -.203E+03 -.112E+03 -.517E+02   -.458E+01 -.895E+01 -.567E+01   -.467E-01 -.201E-01 -.134E-02
   0.208E+03 0.121E+03 0.580E+02   -.203E+03 -.112E+03 -.524E+02   -.461E+01 -.902E+01 -.566E+01   -.405E-01 -.147E-01 0.491E-02
   0.177E+03 0.936E+02 0.455E+02   -.168E+03 -.820E+02 -.382E+02   -.831E+01 -.115E+02 -.729E+01   0.515E-01 -.228E-01 0.370E-01
   0.176E+03 0.939E+02 0.457E+02   -.168E+03 -.823E+02 -.385E+02   -.831E+01 -.115E+02 -.727E+01   0.539E-01 -.261E-01 0.591E-01
   -.203E+03 -.119E+03 -.514E+02   0.198E+03 0.110E+03 0.455E+02   0.554E+01 0.947E+01 0.588E+01   0.432E-01 0.397E-02 0.139E-01
   -.204E+03 -.119E+03 -.516E+02   0.198E+03 0.110E+03 0.457E+02   0.548E+01 0.950E+01 0.585E+01   0.390E-01 0.936E-03 0.103E-01
   -.169E+03 -.915E+02 -.814E+02   0.161E+03 0.790E+02 0.774E+02   0.833E+01 0.126E+02 0.393E+01   -.395E-01 -.415E-01 0.268E-01
   -.169E+03 -.917E+02 -.815E+02   0.161E+03 0.791E+02 0.775E+02   0.837E+01 0.126E+02 0.391E+01   -.427E-01 -.500E-01 0.383E-01
   -.206E+03 0.122E+03 -.608E+02   0.201E+03 -.113E+03 0.554E+02   0.494E+01 -.883E+01 0.539E+01   0.456E-01 -.195E-01 -.956E-02
   -.206E+03 0.122E+03 -.599E+02   0.201E+03 -.113E+03 0.545E+02   0.492E+01 -.884E+01 0.541E+01   0.409E-01 -.152E-01 0.639E-02
   -.176E+03 0.941E+02 -.442E+02   0.168E+03 -.827E+02 0.370E+02   0.832E+01 -.114E+02 0.723E+01   -.577E-01 -.243E-01 -.573E-01
   -.176E+03 0.941E+02 -.441E+02   0.168E+03 -.826E+02 0.369E+02   0.833E+01 -.115E+02 0.723E+01   -.476E-01 -.250E-01 -.386E-01
   0.202E+03 -.120E+03 0.538E+02   -.196E+03 0.110E+03 -.481E+02   -.579E+01 0.938E+01 -.568E+01   -.395E-01 0.515E-02 -.467E-02
   0.202E+03 -.120E+03 0.536E+02   -.196E+03 0.110E+03 -.479E+02   -.579E+01 0.937E+01 -.566E+01   -.418E-01 -.177E-03 -.196E-01
   0.169E+03 -.912E+02 0.818E+02   -.161E+03 0.788E+02 -.779E+02   -.835E+01 0.125E+02 -.388E+01   0.371E-01 -.416E-01 -.298E-01
   0.169E+03 -.910E+02 0.815E+02   -.161E+03 0.786E+02 -.776E+02   -.837E+01 0.125E+02 -.390E+01   0.448E-01 -.497E-01 -.353E-01
   -.147E+01 0.473E+02 0.176E+01   0.120E+01 -.471E+02 -.168E+01   0.332E+00 -.205E+00 -.694E-01   -.485E-01 0.466E-02 -.639E-02
   -.140E+01 0.475E+02 0.197E+01   0.112E+01 -.472E+02 -.190E+01   0.327E+00 -.216E+00 -.724E-01   -.446E-01 0.561E-02 0.540E-02
   0.131E+01 0.472E+02 -.172E+01   -.104E+01 -.469E+02 0.166E+01   -.306E+00 -.234E+00 0.629E-01   0.484E-01 0.559E-02 -.558E-02
   0.121E+01 0.471E+02 -.149E+01   -.950E+00 -.469E+02 0.142E+01   -.306E+00 -.232E+00 0.613E-01   0.447E-01 0.481E-02 0.653E-02
   0.416E+01 -.390E+02 -.748E+01   -.422E+01 0.391E+02 0.721E+01   0.106E+00 -.158E-01 0.266E+00   -.403E-01 0.428E-02 0.274E-03
   0.420E+01 -.390E+02 -.746E+01   -.426E+01 0.390E+02 0.719E+01   0.107E+00 -.169E-01 0.268E+00   -.429E-01 0.490E-02 -.240E-02
   -.420E+01 -.390E+02 0.788E+01   0.427E+01 0.390E+02 -.759E+01   -.101E+00 -.165E-01 -.286E+00   0.403E-01 0.510E-02 0.218E-02
   -.425E+01 -.391E+02 0.782E+01   0.431E+01 0.391E+02 -.753E+01   -.104E+00 -.149E-01 -.288E+00   0.429E-01 0.392E-02 0.142E-04
   -.873E+00 0.229E+03 -.980E+00   0.813E+00 -.231E+03 0.947E+00   0.632E-01 0.146E+01 0.301E-01   -.104E-02 -.168E-01 0.294E-02
   -.819E+00 0.229E+03 -.102E+01   0.754E+00 -.231E+03 0.997E+00   0.654E-01 0.145E+01 0.246E-01   0.733E-03 -.169E-01 -.302E-02
 -----------------------------------------------------------------------------------------------
   -.678E+00 0.103E+01 0.345E+00   0.711E-13 -.171E-12 -.305E-12   0.750E+00 -.764E+00 -.314E+00   0.335E-04 -.167E+00 0.460E-03
 
 
 POSITION                                       TOTAL-FORCE (eV/Angst)
 -----------------------------------------------------------------------------------
      2.27822      3.66603      1.22474        -0.000033      0.002032     -0.000574
      6.85077      3.72470      1.20369         0.000478      0.000600     -0.000946
      6.82009      3.72483      6.15315         0.002332      0.000397      0.000022
      2.23317      1.96366      8.65018        -0.000396      0.000090     -0.000762
      2.24806      3.66672      6.17523        -0.000111      0.001659     -0.001045
      2.26378      1.96470      3.70133         0.000416     -0.000945     -0.001165
      1.01199      0.64399      4.55291         0.000739      0.000274     -0.003796
      0.98173      0.64346      9.50197         0.005295      0.000052      0.001530
      5.51859      0.61192      4.59861         0.001776     -0.004775      0.000817
      5.48757      0.61208      9.54769         0.001627      0.002616     -0.001090
      3.48701      5.00868      0.36075        -0.005557     -0.003372      0.001997
      3.45754      5.01061      5.31004         0.004157     -0.003093     -0.003459
      8.14935      5.04913      0.29849         0.001131      0.002868     -0.001793
      8.11940      5.04935      5.24709        -0.002681     -0.000266     -0.005248
      3.51398      0.63858      2.85029         0.002143      0.002189      0.005637
      3.48343      0.63833      7.79927        -0.003630      0.002066      0.002417
      8.15414      0.61226      2.75093        -0.000531      0.005191      0.001044
      8.12398      0.61220      7.70050        -0.000550      0.003206      0.000478
      1.06836      5.01742      2.08931        -0.005403     -0.001921     -0.000957
      1.03838      5.01601      7.03859         0.002714      0.003736      0.001091
      5.55426      5.04637      2.10799        -0.005864      0.003362      0.000501
      5.52304      5.04493      7.05688         0.001947     -0.002670     -0.000703
      1.22876      2.15664      2.02442        -0.003368      0.001687      0.004464
      1.19713      2.15492      6.97411         0.002032      0.003237      0.006608
      5.72882      2.17240      1.95489         0.001392     -0.003908      0.003257
      5.69902      2.17188      6.90435         0.001948     -0.007188      0.002467
      3.34033      3.49505      2.92458         0.000874     -0.011248     -0.003946
      3.30964      3.49347      7.87378        -0.000504     -0.000831      0.000906
      7.92285      3.57541      2.83907        -0.000429      0.003183     -0.001948
      7.89058      3.57728      7.78930        -0.004465     -0.003445      0.001276
      3.32297      2.13862      0.43006        -0.011824      0.001904     -0.003799
      3.29329      2.14176      5.38045         0.003207      0.000465      0.005252
      7.97318      2.17602      0.45688        -0.004459      0.001726     -0.002542
      7.94324      2.17668      5.40653        -0.000149      0.003745     -0.003828
      1.19225      3.50718      4.47533         0.003708      0.000738     -0.000596
      1.16186      3.50644      9.42319        -0.000717     -0.005704     -0.001768
      5.74950      3.57886      4.51833        -0.002589     -0.004928     -0.001738
      5.71859      3.57959      9.46777         0.003309     -0.001221      0.000331
      0.01502      0.99469      1.21702         0.002025      0.000003      0.000527
     -0.01595      0.99419      6.16589         0.002191     -0.001510      0.000410
      4.54785      0.98900      1.23547         0.002119     -0.000660      0.000164
      4.51727      0.98945      6.18429        -0.000112     -0.000272     -0.000704
      0.00172      4.67411      3.67642         0.002118      0.002335      0.001376
     -0.02884      4.67416      8.62600         0.002626      0.002746      0.000337
      4.52193      4.67156      3.72363         0.000407     -0.000140     -0.000417
      4.49093      4.67132      8.67258        -0.000820     -0.000290      0.000252
      6.80578      1.89087      8.62893         0.000996      0.002962     -0.000259
      6.83643      1.89107      3.67954         0.000486      0.003319     -0.000080
 -----------------------------------------------------------------------------------
    total drift:                                0.072200      0.103017      0.031048


--------------------------------------------------------------------------------------------------------



  FREE ENERGIE OF THE ION-ELECTRON SYSTEM (eV)
  ---------------------------------------------------
  free  energy   TOTEN  =      -377.25475177 eV

  energy  without entropy=     -377.25475177  energy(sigma->0) =     -377.25475177
 


--------------------------------------------------------------------------------------------------------


    POTLOK:  cpu time    0.0204: real time    0.0205


--------------------------------------------------------------------------------------------------------


 writing wavefunctions
     LOOP+:  cpu time  974.0580: real time  974.5621
    4ORBIT:  cpu time    0.0000: real time    0.0000
 


 total charge     
 
# of ion       s       p       d       tot
------------------------------------------
    1        0.215   6.203   7.864  14.283
    2        0.207   6.190   7.877  14.275
    3        0.207   6.190   7.878  14.275
    4        0.216   6.205   7.868  14.289
    5        0.215   6.203   7.864  14.283
    6        0.216   6.205   7.868  14.289
    7        1.570   3.464   0.000   5.034
    8        1.570   3.464   0.000   5.034
    9        1.573   3.473   0.000   5.046
   10        1.573   3.473   0.000   5.046
   11        1.570   3.459   0.000   5.029
   12        1.570   3.459   0.000   5.029
   13        1.572   3.454   0.000   5.026
   14        1.572   3.455   0.000   5.026
   15        1.571   3.463   0.000   5.033
   16        1.571   3.463   0.000   5.033
   17        1.573   3.475   0.000   5.047
   18        1.573   3.475   0.000   5.047
   19        1.570   3.459   0.000   5.029
   20        1.570   3.459   0.000   5.029
   21        1.572   3.455   0.000   5.027
   22        1.572   3.455   0.000   5.027
   23        1.574   3.444   0.000   5.018
   24        1.574   3.444   0.000   5.018
   25        1.578   3.436   0.000   5.015
   26        1.578   3.436   0.000   5.015
   27        1.575   3.442   0.000   5.017
   28        1.575   3.442   0.000   5.017
   29        1.577   3.440   0.000   5.017
   30        1.577   3.440   0.000   5.017
   31        1.574   3.444   0.000   5.018
   32        1.574   3.444   0.000   5.018
   33        1.578   3.437   0.000   5.015
   34        1.578   3.437   0.000   5.015
   35        1.575   3.442   0.000   5.017
   36        1.575   3.442   0.000   5.017
   37        1.577   3.440   0.000   5.017
   38        1.577   3.440   0.000   5.017
   39        0.699   1.006   4.145   5.850
   40        0.699   1.007   4.147   5.852
   41        0.698   1.003   4.143   5.843
   42        0.697   1.003   4.142   5.842
   43        0.695   1.005   4.137   5.836
   44        0.695   1.005   4.137   5.837
   45        0.695   1.006   4.136   5.837
   46        0.695   1.006   4.136   5.837
   47        0.174   6.134   8.894  15.201
   48        0.174   6.134   8.895  15.202
--------------------------------------------------
tot         57.555 167.961  98.130 323.647
 
 BZINTS: Fermi energy:  4.349130;370.000000 electrons
         Band energy:***********;  BLOECHL correction: -0.014492

 total amount of memory used by VASP MPI-rank0   142986. kBytes
=======================================================================

   base      :      30000. kBytes
   nonlr-proj:       4224. kBytes
   fftplans  :       1587. kBytes
   grid      :       2924. kBytes
   one-center:        186. kBytes
   wavefun   :     104065. kBytes
 
  
  
 General timing and accounting informations for this job:
 ========================================================
  
                  Total CPU time used (sec):      997.305
                            User time (sec):      988.895
                          System time (sec):        8.410
                         Elapsed time (sec):      997.826
  
                   Maximum memory used (kb):      263648.
                   Average memory used (kb):           0.
  
                          Minor page faults:        81470
                          Major page faults:            0
                 Voluntary context switches:          809
