 vasp.5.4.4.18Apr17-6-g9f103f2a35 (build Jan 25 2019 22:30:10) complex          
  
 executed on             LinuxIFC date 2021.08.09  14:24:43
 running on   32 total cores
 distrk:  each k-point on   32 cores,    1 groups
 distr:  one band on NCORES_PER_BAND=   4 cores,    8 groups


--------------------------------------------------------------------------------------------------------


 INCAR:
 POTCAR:    PAW_PBE Ni_pv 06Sep2000               
 POTCAR:    PAW_PBE O 08Apr2002                   
 POTCAR:    PAW_PBE W 08Apr2002                   
 POTCAR:    PAW_PBE Cu_pv 06Sep2000               
 POTCAR:    PAW_PBE Ni_pv 06Sep2000               
   VRHFIN =Ni:                                                                  
   LEXCH  = PE                                                                  
   EATOM  =  3501.1230 eV,  257.3253 Ry                                         
                                                                                
   TITEL  = PAW_PBE Ni_pv 06Sep2000                                             
   LULTRA =        F    use ultrasoft PP ?                                      
   IUNSCR =        1    unscreen: 0-lin 1-nonlin 2-no                           
   RPACOR =    1.500    partial core radius                                     
   POMASS =   58.690; ZVAL   =   16.000    mass and valenz                      
   RCORE  =    2.000    outmost cutoff radius                                   
   RWIGS  =    2.000; RWIGS  =    1.058    wigner-seitz radius (au A)           
   ENMAX  =  367.986; ENMIN  =  275.989 eV                                      
   RCLOC  =    1.301    cutoff for local pot                                    
   LCOR   =        T    correct aug charges                                     
   LPAW   =        T    paw PP                                                  
   EAUG   =  703.443                                                            
   DEXC   =    0.000                                                            
   RMAX   =    2.041    core radius for proj-oper                               
   RAUG   =    1.300    factor for augmentation sphere                          
   RDEP   =    2.103    radius for radial grids                                 
   RDEPT  =    1.618    core radius for aug-charge                              
                                                                                
   Atomic configuration                                                         
    8 entries                                                                   
     n  l   j            E        occ.                                          
     1  0  0.50     -8206.4253   2.0000                                         
     2  0  0.50      -976.1748   2.0000                                         
     2  1  1.50      -839.0571   6.0000                                         
     3  0  0.50      -105.9991   2.0000                                         
     3  1  1.50       -66.4603   6.0000                                         
     3  2  2.50        -4.6458   9.0000                                         
     4  0  0.50        -4.4926   1.0000                                         
     4  3  2.50        -1.3606   0.0000                                         
   Description                                                                  
     l       E           TYP  RCUT    TYP  RCUT                                 
     1    -66.4602962     23  1.700                                             
     1     -1.3605826     23  1.700                                             
     2     -4.6457867     23  2.000                                             
     2     -6.0063693     23  2.000                                             
     0     -4.4925576     23  1.900                                             
     0     16.3626226     23  1.900                                             
  local pseudopotential read in
  partial core-charges read in
  partial kinetic energy density read in
  atomic valenz-charges read in
  non local Contribution for L=           1  read in
    real space projection operators read in
  non local Contribution for L=           1  read in
    real space projection operators read in
  non local Contribution for L=           2  read in
    real space projection operators read in
  non local Contribution for L=           2  read in
    real space projection operators read in
  non local Contribution for L=           0  read in
    real space projection operators read in
  non local Contribution for L=           0  read in
    real space projection operators read in
    PAW grid and wavefunctions read in
 
   number of l-projection  operators is LMAX  =           6
   number of lm-projection operators is LMMAX =          18
 
 POTCAR:    PAW_PBE O 08Apr2002                   
   VRHFIN =O: s2p4                                                              
   LEXCH  = PE                                                                  
   EATOM  =   432.3788 eV,   31.7789 Ry                                         
                                                                                
   TITEL  = PAW_PBE O 08Apr2002                                                 
   LULTRA =        F    use ultrasoft PP ?                                      
   IUNSCR =        1    unscreen: 0-lin 1-nonlin 2-no                           
   RPACOR =    1.200    partial core radius                                     
   POMASS =   16.000; ZVAL   =    6.000    mass and valenz                      
   RCORE  =    1.520    outmost cutoff radius                                   
   RWIGS  =    1.550; RWIGS  =    0.820    wigner-seitz radius (au A)           
   ENMAX  =  400.000; ENMIN  =  300.000 eV                                      
   ICORE  =        2    local potential                                         
   LCOR   =        T    correct aug charges                                     
   LPAW   =        T    paw PP                                                  
   EAUG   =  605.392                                                            
   DEXC   =    0.000                                                            
   RMAX   =    1.553    core radius for proj-oper                               
   RAUG   =    1.300    factor for augmentation sphere                          
   RDEP   =    1.550    radius for radial grids                                 
   RDEPT  =    1.329    core radius for aug-charge                              
                                                                                
   Atomic configuration                                                         
    4 entries                                                                   
     n  l   j            E        occ.                                          
     1  0  0.50      -514.6923   2.0000                                         
     2  0  0.50       -23.9615   2.0000                                         
     2  1  0.50        -9.0305   4.0000                                         
     3  2  1.50        -9.5241   0.0000                                         
   Description                                                                  
     l       E           TYP  RCUT    TYP  RCUT                                 
     0    -23.9615318     23  1.200                                             
     0     -9.5240782     23  1.200                                             
     1     -9.0304911     23  1.520                                             
     1      8.1634956     23  1.520                                             
     2     -9.5240782      7  1.500                                             
  local pseudopotential read in
  partial core-charges read in
  partial kinetic energy density read in
  kinetic energy density of atom read in
  atomic valenz-charges read in
  non local Contribution for L=           0  read in
    real space projection operators read in
  non local Contribution for L=           0  read in
    real space projection operators read in
  non local Contribution for L=           1  read in
    real space projection operators read in
  non local Contribution for L=           1  read in
    real space projection operators read in
    PAW grid and wavefunctions read in
 
   number of l-projection  operators is LMAX  =           4
   number of lm-projection operators is LMMAX =           8
 
 POTCAR:    PAW_PBE W 08Apr2002                   
   VRHFIN =W : 6s5d                                                             
   LEXCH  = PE                                                                  
   EATOM  =   204.6103 eV,   15.0384 Ry                                         
                                                                                
   TITEL  = PAW_PBE W 08Apr2002                                                 
   LULTRA =        F    use ultrasoft PP ?                                      
   IUNSCR =        1    unscreen: 0-lin 1-nonlin 2-no                           
   RPACOR =    2.330    partial core radius                                     
   POMASS =  183.850; ZVAL   =    6.000    mass and valenz                      
   RCORE  =    2.750    outmost cutoff radius                                   
   RWIGS  =    2.750; RWIGS  =    1.455    wigner-seitz radius (au A)           
   ENMAX  =  223.057; ENMIN  =  167.293 eV                                      
   RCLOC  =    2.147    cutoff for local pot                                    
   LCOR   =        T    correct aug charges                                     
   LPAW   =        T    paw PP                                                  
   EAUG   =  373.438                                                            
   DEXC   =    0.000                                                            
   RMAX   =    2.801    core radius for proj-oper                               
   RAUG   =    1.300    factor for augmentation sphere                          
   RDEP   =    2.886    radius for radial grids                                 
   RDEPT  =    2.230    core radius for aug-charge                              
                                                                                
   Atomic configuration                                                         
   16 entries                                                                   
     n  l   j            E        occ.                                          
     1  0  0.50    -69465.5836   2.0000                                         
     2  0  0.50    -11986.2642   2.0000                                         
     2  1  1.50    -10479.8616   6.0000                                         
     3  0  0.50     -2759.0758   2.0000                                         
     3  1  1.50     -2313.1857   6.0000                                         
     3  2  2.50     -1801.1185  10.0000                                         
     4  0  0.50      -567.6791   2.0000                                         
     4  1  1.50      -421.4694   6.0000                                         
     4  2  2.50      -236.3473  10.0000                                         
     4  3  3.50       -31.2666  14.0000                                         
     5  0  0.50       -77.1085   2.0000                                         
     5  1  1.50       -41.3856   6.0000                                         
     5  2  2.50        -3.3185   5.0000                                         
     6  0  0.50        -5.1438   1.0000                                         
     6  1  0.50        -3.8096   0.0000                                         
     5  3  2.50        -1.3606   0.0000                                         
   Description                                                                  
     l       E           TYP  RCUT    TYP  RCUT                                 
     2     -3.3185288     23  2.500                                             
     2     -1.5965414     23  2.500                                             
     0     -5.1438054     23  2.500                                             
     0      4.9117504     23  2.500                                             
     1      2.7211652     23  2.750                                             
     1     27.2116520     23  2.750                                             
  local pseudopotential read in
  partial core-charges read in
  partial kinetic energy density read in
  atomic valenz-charges read in
  non local Contribution for L=           2  read in
    real space projection operators read in
  non local Contribution for L=           2  read in
    real space projection operators read in
  non local Contribution for L=           0  read in
    real space projection operators read in
  non local Contribution for L=           0  read in
    real space projection operators read in
  non local Contribution for L=           1  read in
    real space projection operators read in
  non local Contribution for L=           1  read in
    real space projection operators read in
    PAW grid and wavefunctions read in
 
   number of l-projection  operators is LMAX  =           6
   number of lm-projection operators is LMMAX =          18
 
 POTCAR:    PAW_PBE Cu_pv 06Sep2000               
   VRHFIN =Cu: d10 p1                                                           
   LEXCH  = PE                                                                  
   EATOM  =  4120.1201 eV,  302.8203 Ry                                         
                                                                                
   TITEL  = PAW_PBE Cu_pv 06Sep2000                                             
   LULTRA =        F    use ultrasoft PP ?                                      
   IUNSCR =        1    unscreen: 0-lin 1-nonlin 2-no                           
   RPACOR =    1.500    partial core radius                                     
   POMASS =   63.546; ZVAL   =   17.000    mass and valenz                      
   RCORE  =    2.000    outmost cutoff radius                                   
   RWIGS  =    2.000; RWIGS  =    1.058    wigner-seitz radius (au A)           
   ENMAX  =  368.648; ENMIN  =  276.486 eV                                      
   RCLOC  =    1.304    cutoff for local pot                                    
   LCOR   =        T    correct aug charges                                     
   LPAW   =        T    paw PP                                                  
   EAUG   =  758.233                                                            
   DEXC   =    0.000                                                            
   RMAX   =    2.046    core radius for proj-oper                               
   RAUG   =    1.300    factor for augmentation sphere                          
   RDEP   =    2.025    radius for radial grids                                 
   RDEPT  =    1.558    core radius for aug-charge                              
                                                                                
   Atomic configuration                                                         
    8 entries                                                                   
     n  l   j            E        occ.                                          
     1  0  0.50     -8850.2467   2.0000                                         
     2  0  0.50     -1062.3498   2.0000                                         
     2  1  1.50      -916.8226   6.0000                                         
     3  0  0.50      -114.6929   2.0000                                         
     3  1  1.50       -72.1325   6.0000                                         
     3  2  2.50        -5.0394  10.0000                                         
     4  0  0.50        -4.6097   1.0000                                         
     4  3  2.50        -1.3606   0.0000                                         
   Description                                                                  
     l       E           TYP  RCUT    TYP  RCUT                                 
     1    -72.1324777     23  1.700                                             
     1     -1.3605826     23  1.700                                             
     2     -5.0393776     23  2.000                                             
     2     -6.3999602     23  2.000                                             
     0     -4.6097062     23  1.800                                             
     0     14.1620818     23  1.800                                             
  local pseudopotential read in
  partial core-charges read in
  partial kinetic energy density read in
  atomic valenz-charges read in
  non local Contribution for L=           1  read in
    real space projection operators read in
  non local Contribution for L=           1  read in
    real space projection operators read in
  non local Contribution for L=           2  read in
    real space projection operators read in
  non local Contribution for L=           2  read in
    real space projection operators read in
  non local Contribution for L=           0  read in
    real space projection operators read in
  non local Contribution for L=           0  read in
    real space projection operators read in
    PAW grid and wavefunctions read in
 
   number of l-projection  operators is LMAX  =           6
   number of lm-projection operators is LMMAX =          18
 
 Optimization of the real space projectors (new method)

 maximal supplied QI-value         = 18.90
 optimisation between [QCUT,QGAM] = [ 11.34, 22.87] = [ 36.00,146.41] Ry 
 Optimized for a Real-space Cutoff    1.35 Angstroem

   l    n(q)    QCUT    max X(q) W(low)/X(q) W(high)/X(q)  e(spline) 
   1      9    11.338     2.836    0.21E-04    0.44E-04    0.96E-07
   1      9    11.338     4.023    0.81E-04    0.11E-03    0.22E-06
   2      8    11.338    73.368    0.36E-03    0.40E-03    0.33E-06
   2      8    11.338    69.010    0.37E-03    0.41E-03    0.34E-06
   0      9    11.338    54.797    0.66E-04    0.74E-04    0.73E-07
   0      9    11.338    24.266    0.52E-04    0.65E-04    0.65E-07
 Optimization of the real space projectors (new method)

 maximal supplied QI-value         = 24.76
 optimisation between [QCUT,QGAM] = [ 11.39, 22.77] = [ 36.31,145.25] Ry 
 Optimized for a Real-space Cutoff    1.00 Angstroem

   l    n(q)    QCUT    max X(q) W(low)/X(q) W(high)/X(q)  e(spline) 
   0      7    11.387    20.381    0.39E-03    0.13E-02    0.15E-06
   0      7    11.387    15.268    0.42E-03    0.14E-02    0.17E-06
   1      6    11.387     5.964    0.41E-03    0.11E-02    0.17E-06
   1      6    11.387     5.382    0.39E-03    0.87E-03    0.15E-06
 Optimization of the real space projectors (new method)

 maximal supplied QI-value         = 13.61
 optimisation between [QCUT,QGAM] = [ 11.43, 22.86] = [ 36.58,146.31] Ry 
 Optimized for a Real-space Cutoff    1.56 Angstroem

   l    n(q)    QCUT    max X(q) W(low)/X(q) W(high)/X(q)  e(spline) 
   2     10    11.429   130.855    0.22E-03    0.64E-03    0.11E-05
   2     10    11.429   114.007    0.22E-03    0.64E-03    0.11E-05
   0     11    11.429    84.709    0.39E-04    0.67E-04    0.23E-06
   0     11    11.429    49.163    0.35E-04    0.62E-04    0.21E-06
   1     10    11.429    15.765    0.84E-04    0.15E-03    0.24E-06
   1     10    11.429    10.638    0.58E-04    0.12E-03    0.19E-06
 Optimization of the real space projectors (new method)

 maximal supplied QI-value         = 18.90
 optimisation between [QCUT,QGAM] = [ 11.34, 22.87] = [ 36.00,146.41] Ry 
 Optimized for a Real-space Cutoff    1.35 Angstroem

   l    n(q)    QCUT    max X(q) W(low)/X(q) W(high)/X(q)  e(spline) 
   1      9    11.338     3.172    0.27E-04    0.54E-04    0.11E-06
   1      9    11.338     4.083    0.75E-04    0.10E-03    0.21E-06
   2      8    11.338    65.342    0.34E-03    0.39E-03    0.31E-06
   2      8    11.338    61.381    0.35E-03    0.40E-03    0.31E-06
   0      9    11.338    65.742    0.63E-04    0.53E-04    0.82E-07
   0      9    11.338    30.431    0.56E-04    0.48E-04    0.75E-07
  PAW_PBE Ni_pv 06Sep2000               :
 energy of atom  1       EATOM=-3501.1230
 kinetic energy error for atom=    0.0690 (will be added to EATOM!!)
  PAW_PBE O 08Apr2002                   :
 energy of atom  2       EATOM= -432.3788
 kinetic energy error for atom=    0.0224 (will be added to EATOM!!)
  PAW_PBE W 08Apr2002                   :
 energy of atom  3       EATOM= -204.6103
 kinetic energy error for atom=    0.0017 (will be added to EATOM!!)
  PAW_PBE Cu_pv 06Sep2000               :
 energy of atom  4       EATOM=-4120.1201
 kinetic energy error for atom=    0.0655 (will be added to EATOM!!)
 
 
 POSCAR: Ni O4 W                                 
  positions in direct lattice
  velocities in cartesian coordinates
 exchange correlation table for  LEXCH =        8
   RHO(1)=    0.500       N(1)  =     2000
   RHO(2)=  100.500       N(2)  =     4000
 


--------------------------------------------------------------------------------------------------------


 ion  position               nearest neighbor table
   1  0.251  0.652  0.123-  36 1.98  27 1.98  23 2.01  11 2.02  19 2.05  31 2.05
   2  0.751  0.652  0.123-  38 1.98  29 1.98  25 2.01  13 2.02  21 2.05  33 2.05
   3  0.749  0.651  0.627-  37 1.98  30 1.98  34 2.00  22 2.01  14 2.05  26 2.06
   4  0.750  0.345  0.875-  26 1.95  33 1.96  10 2.04  18 2.04  38 2.05  30 2.05
   5  0.250  0.345  0.875-  24 1.95  31 1.96   8 2.04  16 2.04  36 2.05  28 2.05
   6  0.249  0.651  0.627-  35 1.98  28 1.98  32 2.00  20 2.01  12 2.05  24 2.06
   7  0.108  0.112  0.466-  40 1.91  47 2.04  43 2.09
   8  0.112  0.109  0.962-  39 1.95   5 2.04  44 2.10
   9  0.608  0.112  0.466-  42 1.91  48 2.04  45 2.10
  10  0.612  0.109  0.962-  41 1.95   4 2.04  46 2.10
  11  0.388  0.885  0.036-  46 1.94   1 2.02  41 2.12
  12  0.385  0.891  0.536-  45 1.96   6 2.05  42 2.11
  13  0.888  0.885  0.036-  44 1.94   2 2.02  39 2.12
  14  0.885  0.891  0.536-  43 1.96   3 2.05  40 2.11
  15  0.392  0.112  0.284-  41 1.91  47 2.04  45 2.09
  16  0.387  0.108  0.788-  42 1.95   5 2.04  46 2.09
  17  0.892  0.112  0.284-  39 1.91  48 2.04  43 2.09
  18  0.887  0.108  0.788-  40 1.95   4 2.04  44 2.09
  19  0.116  0.891  0.214-  43 1.96   1 2.05  39 2.11
  20  0.112  0.884  0.714-  44 1.94   6 2.01  40 2.12
  21  0.616  0.892  0.214-  45 1.96   2 2.05  41 2.11
  22  0.612  0.884  0.714-  46 1.94   3 2.01  42 2.12
  23  0.128  0.388  0.197-  39 1.82   1 2.01  47 2.09
  24  0.134  0.374  0.709-  40 1.86   5 1.95   6 2.06
  25  0.628  0.388  0.197-  41 1.82   2 2.01  48 2.09
  26  0.634  0.374  0.709-  42 1.86   4 1.95   3 2.06
  27  0.369  0.629  0.292-  45 1.83   1 1.98  47 2.15
  28  0.367  0.619  0.796-  46 1.85   6 1.98   5 2.05
  29  0.869  0.629  0.292-  43 1.83   2 1.98  48 2.15
  30  0.867  0.619  0.795-  44 1.85   3 1.98   4 2.05
  31  0.365  0.375  0.042-  41 1.86   5 1.96   1 2.05
  32  0.371  0.388  0.553-  42 1.82   6 2.00  47 2.09
  33  0.865  0.375  0.042-  39 1.86   4 1.96   2 2.05
  34  0.871  0.388  0.553-  40 1.82   3 2.00  48 2.09
  35  0.131  0.629  0.458-  43 1.83   6 1.98  47 2.15
  36  0.134  0.621  0.955-  44 1.85   1 1.98   5 2.05
  37  0.631  0.629  0.458-  45 1.83   3 1.98  48 2.15
  38  0.634  0.621  0.955-  46 1.85   2 1.98   4 2.05
  39  0.001  0.175  0.124-  23 1.82  33 1.86  17 1.91   8 1.95  19 2.11  13 2.12  44 3.17  43 3.17

  40  0.999  0.175  0.626-  34 1.82  24 1.86   7 1.91  18 1.95  14 2.11  20 2.12  44 3.17  43 3.17

  41  0.501  0.175  0.124-  25 1.82  31 1.86  15 1.91  10 1.95  21 2.11  11 2.12  46 3.17  45 3.17

  42  0.499  0.175  0.626-  32 1.82  26 1.86   9 1.91  16 1.95  12 2.11  22 2.12  46 3.17  45 3.17

  43  1.000  0.826  0.375-  29 1.83  35 1.83  14 1.96  19 1.96  17 2.09   7 2.09  40 3.17  39 3.17

  44  1.000  0.824  0.875-  30 1.85  36 1.85  13 1.94  20 1.94  18 2.09   8 2.10  39 3.17  40 3.17

  45  0.500  0.826  0.375-  27 1.83  37 1.83  12 1.96  21 1.96  15 2.09   9 2.10  42 3.17  41 3.17

  46  0.500  0.824  0.875-  28 1.85  38 1.85  11 1.94  22 1.94  16 2.09  10 2.10  41 3.17  42 3.17

  47  0.250  0.337  0.375-  15 2.04   7 2.04  23 2.09  32 2.09  35 2.15  27 2.15
  48  0.750  0.337  0.375-  17 2.04   9 2.04  25 2.09  34 2.09  37 2.15  29 2.15
 

IMPORTANT INFORMATION: All symmetrisations will be switched off!
NOSYMM: (Re-)initialisation of all symmetry stuff for point group C_1.

 
 
 KPOINTS: Automatic mesh                          

Automatic generation of k-mesh.
Space group operators:
 irot       det(A)        alpha          n_x          n_y          n_z        tau_x        tau_y        tau_z
    1     1.000000     0.000000     1.000000     0.000000     0.000000     0.000000     0.000000     0.000000
 
 Subroutine IBZKPT returns following result:
 ===========================================
 
 Found     68 irreducible k-points:
 
 Following reciprocal coordinates:
            Coordinates               Weight
  0.000000  0.000000  0.000000      1.000000
  0.250000  0.000000 -0.000000      2.000000
  0.500000  0.000000 -0.000000      1.000000
 -0.000000  0.125000  0.000000      2.000000
  0.250000  0.125000 -0.000000      2.000000
  0.500000  0.125000 -0.000000      2.000000
 -0.250000  0.125000  0.000000      2.000000
 -0.000000  0.250000  0.000000      2.000000
  0.250000  0.250000 -0.000000      2.000000
  0.500000  0.250000 -0.000000      2.000000
 -0.250000  0.250000  0.000000      2.000000
 -0.000000  0.375000  0.000000      2.000000
  0.250000  0.375000 -0.000000      2.000000
  0.500000  0.375000 -0.000000      2.000000
 -0.250000  0.375000  0.000000      2.000000
 -0.000000  0.500000  0.000000      1.000000
  0.250000  0.500000 -0.000000      2.000000
  0.500000  0.500000 -0.000000      1.000000
  0.000000  0.000000  0.250000      2.000000
  0.250000  0.000000  0.250000      2.000000
  0.500000  0.000000  0.250000      2.000000
 -0.250000 -0.000000  0.250000      2.000000
  0.000000  0.125000  0.250000      2.000000
  0.250000  0.125000  0.250000      2.000000
  0.500000  0.125000  0.250000      2.000000
 -0.250000  0.125000  0.250000      2.000000
  0.000000  0.250000  0.250000      2.000000
  0.250000  0.250000  0.250000      2.000000
  0.500000  0.250000  0.250000      2.000000
 -0.250000  0.250000  0.250000      2.000000
  0.000000  0.375000  0.250000      2.000000
  0.250000  0.375000  0.250000      2.000000
  0.500000  0.375000  0.250000      2.000000
 -0.250000  0.375000  0.250000      2.000000
  0.000000  0.500000  0.250000      2.000000
  0.250000  0.500000  0.250000      2.000000
  0.500000  0.500000  0.250000      2.000000
 -0.250000  0.500000  0.250000      2.000000
  0.000000 -0.375000  0.250000      2.000000
  0.250000 -0.375000  0.250000      2.000000
  0.500000 -0.375000  0.250000      2.000000
 -0.250000 -0.375000  0.250000      2.000000
  0.000000 -0.250000  0.250000      2.000000
  0.250000 -0.250000  0.250000      2.000000
  0.500000 -0.250000  0.250000      2.000000
 -0.250000 -0.250000  0.250000      2.000000
  0.000000 -0.125000  0.250000      2.000000
  0.250000 -0.125000  0.250000      2.000000
  0.500000 -0.125000  0.250000      2.000000
 -0.250000 -0.125000  0.250000      2.000000
  0.000000  0.000000  0.500000      1.000000
  0.250000  0.000000  0.500000      2.000000
  0.500000  0.000000  0.500000      1.000000
  0.000000  0.125000  0.500000      2.000000
  0.250000  0.125000  0.500000      2.000000
  0.500000  0.125000  0.500000      2.000000
 -0.250000  0.125000  0.500000      2.000000
  0.000000  0.250000  0.500000      2.000000
  0.250000  0.250000  0.500000      2.000000
  0.500000  0.250000  0.500000      2.000000
 -0.250000  0.250000  0.500000      2.000000
  0.000000  0.375000  0.500000      2.000000
  0.250000  0.375000  0.500000      2.000000
  0.500000  0.375000  0.500000      2.000000
 -0.250000  0.375000  0.500000      2.000000
  0.000000  0.500000  0.500000      1.000000
  0.250000  0.500000  0.500000      2.000000
  0.500000  0.500000  0.500000      1.000000
 
 Following cartesian coordinates:
            Coordinates               Weight
  0.000000  0.000000  0.000000      1.000000
  0.027350 -0.000022  0.000180      2.000000
  0.054701 -0.000045  0.000360      1.000000
 -0.000018  0.022069 -0.000000      2.000000
  0.027332  0.022046  0.000180      2.000000
  0.054682  0.022024  0.000360      2.000000
 -0.027368  0.022091 -0.000181      2.000000
 -0.000036  0.044137 -0.000001      2.000000
  0.027314  0.044115  0.000179      2.000000
  0.054664  0.044093  0.000360      2.000000
 -0.027386  0.044160 -0.000181      2.000000
 -0.000054  0.066206 -0.000001      2.000000
  0.027296  0.066184  0.000179      2.000000
  0.054646  0.066161  0.000359      2.000000
 -0.027405  0.066228 -0.000181      2.000000
 -0.000072  0.088275 -0.000001      1.000000
  0.027278  0.088252  0.000179      2.000000
  0.054628  0.088230  0.000359      1.000000
  0.000138 -0.000000  0.025257      2.000000
  0.027488 -0.000023  0.025437      2.000000
  0.054838 -0.000045  0.025617      2.000000
 -0.027213  0.000022  0.025077      2.000000
  0.000119  0.022068  0.025256      2.000000
  0.027470  0.022046  0.025436      2.000000
  0.054820  0.022024  0.025617      2.000000
 -0.027231  0.022091  0.025076      2.000000
  0.000101  0.044137  0.025256      2.000000
  0.027452  0.044115  0.025436      2.000000
  0.054802  0.044092  0.025616      2.000000
 -0.027249  0.044159  0.025076      2.000000
  0.000083  0.066206  0.025256      2.000000
  0.027433  0.066183  0.025436      2.000000
  0.054784  0.066161  0.025616      2.000000
 -0.027267  0.066228  0.025075      2.000000
  0.000065  0.088274  0.025255      2.000000
  0.027415  0.088252  0.025435      2.000000
  0.054766  0.088230  0.025616      2.000000
 -0.027285  0.088297  0.025075      2.000000
  0.000192 -0.066206  0.025258      2.000000
  0.027542 -0.066229  0.025438      2.000000
  0.054892 -0.066251  0.025618      2.000000
 -0.027158 -0.066184  0.025078      2.000000
  0.000174 -0.044138  0.025257      2.000000
  0.027524 -0.044160  0.025438      2.000000
  0.054874 -0.044182  0.025618      2.000000
 -0.027177 -0.044115  0.025077      2.000000
  0.000156 -0.022069  0.025257      2.000000
  0.027506 -0.022091  0.025437      2.000000
  0.054856 -0.022114  0.025617      2.000000
 -0.027195 -0.022047  0.025077      2.000000
  0.000275 -0.000001  0.050513      1.000000
  0.027625 -0.000023  0.050694      2.000000
  0.054976 -0.000045  0.050874      1.000000
  0.000257  0.022068  0.050513      2.000000
  0.027607  0.022046  0.050693      2.000000
  0.054958  0.022023  0.050873      2.000000
 -0.027093  0.022090  0.050333      2.000000
  0.000239  0.044137  0.050513      2.000000
  0.027589  0.044114  0.050693      2.000000
  0.054939  0.044092  0.050873      2.000000
 -0.027111  0.044159  0.050332      2.000000
  0.000221  0.066205  0.050512      2.000000
  0.027571  0.066183  0.050692      2.000000
  0.054921  0.066161  0.050873      2.000000
 -0.027130  0.066228  0.050332      2.000000
  0.000203  0.088274  0.050512      1.000000
  0.027553  0.088252  0.050692      2.000000
  0.054903  0.088229  0.050872      1.000000
 
 TETIRR: Found    384 inequivalent tetrahedra from      768


--------------------------------------------------------------------------------------------------------




 Dimension of arrays:
   k-points           NKPTS =     68   k-points in BZ     NKDIM =     68   number of bands    NBANDS=    224
   number of dos      NEDOS =   2001   number of ions     NIONS =     48
   non local maximal  LDIM  =      6   non local SUM 2l+1 LMDIM =     18
   total plane-waves  NPLWV =  86400
   max r-space proj   IRMAX =   2752   max aug-charges    IRDMAX=   9821
   dimension x,y,z NGX =    50 NGY =   32 NGZ =   54
   dimension x,y,z NGXF=   100 NGYF=   64 NGZF=  108
   support grid    NGXF=   100 NGYF=   64 NGZF=  108
   ions per type =               6  32   8   2
   NGX,Y,Z   is equivalent  to a cutoff of   9.09,  9.39,  9.07 a.u.
   NGXF,Y,Z  is equivalent  to a cutoff of  18.19, 18.78, 18.14 a.u.

 SYSTEM =  NiWO4                                   
 POSCAR =  Ni O4 W                                 

 Startparameter for this run:
   NWRITE =      2    write-flag & timer
   PREC   = normal    normal or accurate (medium, high low for compatibility)
   ISTART =      0    job   : 0-new  1-cont  2-samecut
   ICHARG =      2    charge: 1-file 2-atom 10-const
   ISPIN  =      1    spin polarized calculation?
   LNONCOLLINEAR =      F non collinear calculations
   LSORBIT =      F    spin-orbit coupling
   INIWAV =      1    electr: 0-lowe 1-rand  2-diag
   LASPH  =      F    aspherical Exc in radial PAW
   METAGGA=      F    non-selfconsistent MetaGGA calc.

 Electronic Relaxation 1
   ENCUT  =  500.0 eV  36.75 Ry    6.06 a.u.  16.67 10.33 18.05*2*pi/ulx,y,z
   ENINI  =  500.0     initial cutoff
   ENAUG  =  758.2 eV  augmentation charge cutoff
   NELM   =    400;   NELMIN=  2; NELMDL= -5     # of ELM steps 
   EDIFF  = 0.1E-04   stopping-criterion for ELM
   LREAL  =      T    real-space projection
   NLSPLINE    = F    spline interpolate recip. space projectors
   LCOMPAT=      F    compatible to vasp.4.4
   GGA_COMPAT  = T    GGA compatible to vasp.4.4-vasp.4.6
   LMAXPAW     = -100 max onsite density
   LMAXMIX     =    4 max onsite mixed and CHGCAR
   VOSKOWN=      0    Vosko Wilk Nusair interpolation
   ROPT   =   -0.00050  -0.00050  -0.00050  -0.00050
 Ionic relaxation
   EDIFFG = 0.1E-03   stopping-criterion for IOM
   NSW    =      0    number of steps for IOM
   NBLOCK =      1;   KBLOCK =      1    inner block; outer block 
   IBRION =     -1    ionic relax: 0-MD 1-quasi-New 2-CG
   NFREE  =      0    steps in history (QN), initial steepest desc. (CG)
   ISIF   =      2    stress and relaxation
   IWAVPR =     10    prediction:  0-non 1-charg 2-wave 3-comb
   ISYM   =      0    0-nonsym 1-usesym 2-fastsym
   LCORR  =      T    Harris-Foulkes like correction to forces

   POTIM  = 0.5000    time-step for ionic-motion
   TEIN   =    0.0    initial temperature
   TEBEG  =    0.0;   TEEND  =   0.0 temperature during run
   SMASS  =  -3.00    Nose mass-parameter (am)
   estimated Nose-frequenzy (Omega)   =  0.10E-29 period in steps =****** mass=  -0.191E-26a.u.
   SCALEE = 1.0000    scale energy and forces
   NPACO  =    256;   APACO  = 16.0  distance and # of slots for P.C.
   PSTRESS=    0.0 pullay stress

  Mass of Ions in am
   POMASS =  58.69 16.00183.85 63.55
  Ionic Valenz
   ZVAL   =  16.00  6.00  6.00 17.00
  Atomic Wigner-Seitz radii
   RWIGS  =  -1.00 -1.00 -1.00 -1.00
  virtual crystal weights 
   VCA    =   1.00  1.00  1.00  1.00
   NELECT =     370.0000    total number of electrons
   NUPDOWN=      -1.0000    fix difference up-down

 DOS related values:
   EMIN   =  10.00;   EMAX   =-10.00  energy-range for DOS
   EFERMI =   0.00
   ISMEAR =    -5;   SIGMA  =   0.10  broadening in eV -4-tet -1-fermi 0-gaus

 Electronic relaxation 2 (details)
   IALGO  =     38    algorithm
   LDIAG  =      T    sub-space diagonalisation (order eigenvalues)
   LSUBROT=      F    optimize rotation matrix (better conditioning)
   TURBO    =      0    0=normal 1=particle mesh
   IRESTART =      0    0=no restart 2=restart with 2 vectors
   NREBOOT  =      0    no. of reboots
   NMIN     =      0    reboot dimension
   EREF     =   0.00    reference energy to select bands
   IMIX   =      4    mixing-type and parameters
     AMIX     =   0.40;   BMIX     =  1.00
     AMIX_MAG =   1.60;   BMIX_MAG =  1.00
     AMIN     =   0.10
     WC   =   100.;   INIMIX=   1;  MIXPRE=   1;  MAXMIX= -45

 Intra band minimization:
   WEIMIN = 0.0000     energy-eigenvalue tresh-hold
   EBREAK =  0.11E-07  absolut break condition
   DEPER  =   0.30     relativ break condition  

   TIME   =   0.40     timestep for ELM

  volume/ion in A,a.u.               =      10.68        72.05
  Fermi-wavevector in a.u.,A,eV,Ry     =   1.468627  2.775303 29.345935  2.156865
  Thomas-Fermi vector in A             =   2.584102
 
 Write flags
   LWAVE        =      T    write WAVECAR
   LDOWNSAMPLE  =      F    k-point downsampling of WAVECAR
   LCHARG       =      T    write CHGCAR
   LVTOT        =      F    write LOCPOT, total local potential
   LVHAR        =      F    write LOCPOT, Hartree potential only
   LELF         =      F    write electronic localiz. function (ELF)
   LORBIT       =     11    0 simple, 1 ext, 2 COOP (PROOUT), +10 PAW based schemes


 Dipole corrections
   LMONO  =      F    monopole corrections only (constant potential shift)
   LDIPOL =      F    correct potential (dipole corrections)
   IDIPOL =      0    1-x, 2-y, 3-z, 4-all directions 
   EPSILON=  1.0000000 bulk dielectric constant

 Exchange correlation treatment:
   GGA     =    PE    GGA type
   LEXCH   =     8    internal setting for exchange type
   VOSKOWN=      0    Vosko Wilk Nusair interpolation
   LHFCALC =     F    Hartree Fock is set to
   LHFONE  =     F    Hartree Fock one center treatment
   AEXX    =    0.0000 exact exchange contribution

 Linear response parameters
   LEPSILON=     F    determine dielectric tensor
   LRPA    =     F    only Hartree local field effects (RPA)
   LNABLA  =     F    use nabla operator in PAW spheres
   LVEL    =     F    velocity operator in full k-point grid
   LINTERFAST=   F  fast interpolation
   KINTER  =     0    interpolate to denser k-point grid
   CSHIFT  =0.1000    complex shift for real part using Kramers Kronig
   OMEGAMAX=  -1.0    maximum frequency
   DEG_THRESHOLD= 0.2000000E-02 threshold for treating states as degnerate
   RTIME   =   -0.100 relaxation time in fs
  (WPLASMAI=    0.000 imaginary part of plasma frequency in eV, 0.658/RTIME)
   DFIELD  = 0.0000000 0.0000000 0.0000000 field for delta impulse in time
 
 Orbital magnetization related:
   ORBITALMAG=     F  switch on orbital magnetization
   LCHIMAG   =     F  perturbation theory with respect to B field
   DQ        =  0.001000  dq finite difference perturbation B field
   LLRAUG    =     F  two centre corrections for induced B field



--------------------------------------------------------------------------------------------------------


 Static calculation
 charge density and potential will be updated during run
 non-spin polarized calculation
 Variant of blocked Davidson
 Davidson routine will perform the subspace rotation
 perform sub-space diagonalisation
    after iterative eigenvector-optimisation
 modified Broyden-mixing scheme, WC =      100.0
 initial mixing is a Kerker type mixing with AMIX =  0.4000 and BMIX =      1.0000
 Hartree-type preconditioning will be used
 using additional bands           39
 real space projection scheme for non local part
 use partial core corrections
 calculate Harris-corrections to forces 
   (improved forces if not selfconsistent)
 use gradient corrections 
 use of overlap-Matrix (Vanderbilt PP)
 Fermi weights with tetrahedron method with Bloechl corrections


--------------------------------------------------------------------------------------------------------


  energy-cutoff  :      500.00
  volume of cell :      512.50
      direct lattice vectors                 reciprocal lattice vectors
     9.141006724  0.007499215 -0.049771731     0.109401138 -0.000089091  0.000720623
     0.004612306  5.664142415  0.000049163    -0.000144856  0.176549351 -0.000002913
    -0.065202591  0.000109847  9.898726835     0.000550080 -0.000001325  0.101026716

  length of vectors
     9.141145300  5.664144294  9.898941577     0.109403547  0.176549411  0.101028214


 
 k-points in units of 2pi/SCALE and weight: Automatic mesh                          
   0.00000000  0.00000000  0.00000000       0.008
   0.02735028 -0.00002227  0.00018016       0.016
   0.05470057 -0.00004455  0.00036031       0.008
  -0.00001811  0.02206867 -0.00000036       0.016
   0.02733218  0.02204640  0.00017979       0.016
   0.05468246  0.02202412  0.00035995       0.016
  -0.02736839  0.02209094 -0.00018052       0.016
  -0.00003621  0.04413734 -0.00000073       0.016
   0.02731407  0.04411506  0.00017943       0.016
   0.05466435  0.04409279  0.00035958       0.016
  -0.02738650  0.04415961 -0.00018088       0.016
  -0.00005432  0.06620601 -0.00000109       0.016
   0.02729596  0.06618373  0.00017906       0.016
   0.05464625  0.06616146  0.00035922       0.016
  -0.02740461  0.06622828 -0.00018125       0.016
  -0.00007243  0.08827468 -0.00000146       0.008
   0.02727786  0.08825240  0.00017870       0.016
   0.05462814  0.08823013  0.00035885       0.008
   0.00013752 -0.00000033  0.02525668       0.016
   0.02748780 -0.00002260  0.02543683       0.016
   0.05483809 -0.00004488  0.02561699       0.016
  -0.02721276  0.00002194  0.02507652       0.016
   0.00011941  0.02206834  0.02525631       0.016
   0.02746970  0.02204606  0.02543647       0.016
   0.05481998  0.02202379  0.02561663       0.016
  -0.02723087  0.02209061  0.02507616       0.016
   0.00010131  0.04413701  0.02525595       0.016
   0.02745159  0.04411473  0.02543611       0.016
   0.05480187  0.04409246  0.02561626       0.016
  -0.02724898  0.04415928  0.02507580       0.016
   0.00008320  0.06620568  0.02525559       0.016
   0.02743348  0.06618340  0.02543574       0.016
   0.05478377  0.06616113  0.02561590       0.016
  -0.02726709  0.06622795  0.02507543       0.016
   0.00006509  0.08827434  0.02525522       0.016
   0.02741538  0.08825207  0.02543538       0.016
   0.05476566  0.08822980  0.02561553       0.016
  -0.02728519  0.08829662  0.02507507       0.016
   0.00019184 -0.06620634  0.02525777       0.016
   0.02754213 -0.06622861  0.02543793       0.016
   0.05489241 -0.06625088  0.02561808       0.016
  -0.02715844 -0.06618407  0.02507762       0.016
   0.00017373 -0.04413767  0.02525741       0.016
   0.02752402 -0.04415994  0.02543756       0.016
   0.05487430 -0.04418221  0.02561772       0.016
  -0.02717655 -0.04411540  0.02507725       0.016
   0.00015563 -0.02206900  0.02525704       0.016
   0.02750591 -0.02209127  0.02543720       0.016
   0.05485620 -0.02211355  0.02561735       0.016
  -0.02719466 -0.02204673  0.02507689       0.016
   0.00027504 -0.00000066  0.05051336       0.008
   0.02762532 -0.00002294  0.05069351       0.016
   0.05497561 -0.00004521  0.05087367       0.008
   0.00025693  0.02206801  0.05051299       0.016
   0.02760722  0.02204573  0.05069315       0.016
   0.05495750  0.02202346  0.05087331       0.016
  -0.02709335  0.02209028  0.05033284       0.016
   0.00023883  0.04413668  0.05051263       0.016
   0.02758911  0.04411440  0.05069279       0.016
   0.05493939  0.04409213  0.05087294       0.016
  -0.02711146  0.04415895  0.05033247       0.016
   0.00022072  0.06620534  0.05051227       0.016
   0.02757100  0.06618307  0.05069242       0.016
   0.05492129  0.06616080  0.05087258       0.016
  -0.02712957  0.06622762  0.05033211       0.016
   0.00020261  0.08827401  0.05051190       0.008
   0.02755290  0.08825174  0.05069206       0.016
   0.05490318  0.08822947  0.05087221       0.008
 
 k-points in reciprocal lattice and weights: Automatic mesh                          
   0.00000000  0.00000000  0.00000000       0.008
   0.25000000  0.00000000 -0.00000000       0.016
   0.50000000  0.00000000 -0.00000000       0.008
  -0.00000000  0.12500000  0.00000000       0.016
   0.25000000  0.12500000 -0.00000000       0.016
   0.50000000  0.12500000 -0.00000000       0.016
  -0.25000000  0.12500000  0.00000000       0.016
  -0.00000000  0.25000000  0.00000000       0.016
   0.25000000  0.25000000 -0.00000000       0.016
   0.50000000  0.25000000 -0.00000000       0.016
  -0.25000000  0.25000000  0.00000000       0.016
  -0.00000000  0.37500000  0.00000000       0.016
   0.25000000  0.37500000 -0.00000000       0.016
   0.50000000  0.37500000 -0.00000000       0.016
  -0.25000000  0.37500000  0.00000000       0.016
  -0.00000000  0.50000000  0.00000000       0.008
   0.25000000  0.50000000 -0.00000000       0.016
   0.50000000  0.50000000 -0.00000000       0.008
   0.00000000  0.00000000  0.25000000       0.016
   0.25000000  0.00000000  0.25000000       0.016
   0.50000000  0.00000000  0.25000000       0.016
  -0.25000000 -0.00000000  0.25000000       0.016
   0.00000000  0.12500000  0.25000000       0.016
   0.25000000  0.12500000  0.25000000       0.016
   0.50000000  0.12500000  0.25000000       0.016
  -0.25000000  0.12500000  0.25000000       0.016
   0.00000000  0.25000000  0.25000000       0.016
   0.25000000  0.25000000  0.25000000       0.016
   0.50000000  0.25000000  0.25000000       0.016
  -0.25000000  0.25000000  0.25000000       0.016
   0.00000000  0.37500000  0.25000000       0.016
   0.25000000  0.37500000  0.25000000       0.016
   0.50000000  0.37500000  0.25000000       0.016
  -0.25000000  0.37500000  0.25000000       0.016
   0.00000000  0.50000000  0.25000000       0.016
   0.25000000  0.50000000  0.25000000       0.016
   0.50000000  0.50000000  0.25000000       0.016
  -0.25000000  0.50000000  0.25000000       0.016
   0.00000000 -0.37500000  0.25000000       0.016
   0.25000000 -0.37500000  0.25000000       0.016
   0.50000000 -0.37500000  0.25000000       0.016
  -0.25000000 -0.37500000  0.25000000       0.016
   0.00000000 -0.25000000  0.25000000       0.016
   0.25000000 -0.25000000  0.25000000       0.016
   0.50000000 -0.25000000  0.25000000       0.016
  -0.25000000 -0.25000000  0.25000000       0.016
   0.00000000 -0.12500000  0.25000000       0.016
   0.25000000 -0.12500000  0.25000000       0.016
   0.50000000 -0.12500000  0.25000000       0.016
  -0.25000000 -0.12500000  0.25000000       0.016
   0.00000000  0.00000000  0.50000000       0.008
   0.25000000  0.00000000  0.50000000       0.016
   0.50000000  0.00000000  0.50000000       0.008
   0.00000000  0.12500000  0.50000000       0.016
   0.25000000  0.12500000  0.50000000       0.016
   0.50000000  0.12500000  0.50000000       0.016
  -0.25000000  0.12500000  0.50000000       0.016
   0.00000000  0.25000000  0.50000000       0.016
   0.25000000  0.25000000  0.50000000       0.016
   0.50000000  0.25000000  0.50000000       0.016
  -0.25000000  0.25000000  0.50000000       0.016
   0.00000000  0.37500000  0.50000000       0.016
   0.25000000  0.37500000  0.50000000       0.016
   0.50000000  0.37500000  0.50000000       0.016
  -0.25000000  0.37500000  0.50000000       0.016
   0.00000000  0.50000000  0.50000000       0.008
   0.25000000  0.50000000  0.50000000       0.016
   0.50000000  0.50000000  0.50000000       0.008
 
 position of ions in fractional coordinates (direct lattice) 
   0.25053998  0.65191988  0.12331947
   0.75050103  0.65198519  0.12329951
   0.74941456  0.65147373  0.62697803
   0.75000349  0.34504920  0.87510730
   0.25000605  0.34502811  0.87511993
   0.24941368  0.65147681  0.62698723
   0.10804454  0.11169651  0.46599150
   0.11220417  0.10923223  0.96198249
   0.60803601  0.11169325  0.46599132
   0.61220655  0.10923350  0.96198628
   0.38779377  0.88451376  0.03618383
   0.38464034  0.89138828  0.53601096
   0.88779297  0.88451647  0.03618329
   0.88466577  0.89139079  0.53600064
   0.39193130  0.11214533  0.28375647
   0.38739001  0.10784906  0.78756786
   0.89195938  0.11219780  0.28378579
   0.88739002  0.10784968  0.78756731
   0.11577877  0.89149573  0.21394127
   0.11244927  0.88407009  0.71365189
   0.61572581  0.89151508  0.21396570
   0.61244893  0.88407369  0.71364822
   0.12811300  0.38759995  0.19692988
   0.13446205  0.37445993  0.70852616
   0.62810627  0.38758014  0.19693191
   0.63446113  0.37445185  0.70852143
   0.36874444  0.62892580  0.29163708
   0.36734632  0.61904946  0.79551671
   0.86856371  0.62934543  0.29155950
   0.86732892  0.61904992  0.79547274
   0.36493753  0.37515776  0.04210996
   0.37117067  0.38797277  0.55321178
   0.86496562  0.37511529  0.04210552
   0.87120429  0.38798633  0.55315852
   0.13142250  0.62879510  0.45834348
   0.13402097  0.62115650  0.95470474
   0.63145774  0.62882185  0.45835092
   0.63402875  0.62115760  0.95471765
   0.00075679  0.17460322  0.12396752
   0.99942212  0.17463266  0.62584070
   0.50074000  0.17461573  0.12397372
   0.49942069  0.17462336  0.62583691
   0.99984185  0.82619291  0.37497767
   0.99987417  0.82354815  0.87490199
   0.49984091  0.82614380  0.37499065
   0.49987572  0.82357231  0.87490816
   0.24977730  0.33682675  0.37490293
   0.74978599  0.33682507  0.37487552
 
 position of ions in cartesian coordinates  (Angst):
   2.28515375  3.69445945  1.20826800
   6.85530268  3.69857871  1.18318653
   6.81252773  3.69572888  6.16901666
   6.80031912  1.96012835  8.62513608
   2.22983832  1.95625933  8.65014684
   2.24201578  3.69199672  6.19399356
   0.95776718  0.63352635  4.60735048
   0.96343912  0.61965403  9.51682269
   5.52819259  0.63725744  4.58246323
   5.53396401  0.62341085  9.49197421
   3.54654579  5.01292402  0.33891620
   3.48516198  5.05189356  5.28672566
   8.11704190  5.01668896  0.31402498
   8.05589851  5.05565753  5.26173642
   3.56466225  0.63817747  2.78932618
   3.49028064  0.61386406  7.77664339
   8.13542059  0.64222451  2.76472918
   8.06078416  0.61761720  7.75175202
   1.04849683  5.05045053  2.11202755
   0.98544522  5.00842055  7.05869174
   5.61851459  5.05430937  2.08738614
   5.55594574  5.01219059  7.03376957
   1.16002918  2.19640372  1.94299778
   1.18464787  2.12208057  7.00683291
   5.73047078  2.20004102  1.91813226
   5.75514309  2.12578438  6.98190030
   3.35458072  3.56512264  2.86851362
   3.30890065  3.50922650  7.85634958
   7.92343900  3.57124772  2.84286885
   7.87924787  3.51297857  7.83102936
   3.33488111  2.12768835  0.39868989
   3.35859217  2.20037728  5.45763760
   7.90564130  2.13119761  0.37375865
   7.92940646  2.20420393  5.43222278
   1.17434900  3.56262093  4.53050668
   1.16570234  3.51942879  9.44372153
   5.74517413  3.56652228  4.50569274
   5.73627599  3.52318469  9.41896310
  -0.00035989  0.98899681  1.22709154
   9.09572334  0.99670791  6.14529174
   4.56998969  0.99281714  1.20226793
   4.52520714  0.99290559  6.17014018
   9.11892222  4.68721352  3.66207825
   9.08660909  4.67228839  8.61069082
   4.54840915  4.68318576  3.68709266
   4.51611956  4.66867564  8.63563773
   2.26032492  1.90974898  3.69864644
   6.83090947  1.91348915  3.67348880
 


--------------------------------------------------------------------------------------------------------


 k-point  1 :   0.0000 0.0000 0.0000  plane waves:   13021
 k-point  2 :   0.2500 0.0000-0.0000  plane waves:   13013
 k-point  3 :   0.5000 0.0000-0.0000  plane waves:   12994
 k-point  4 :  -0.0000 0.1250 0.0000  plane waves:   13022
 k-point  5 :   0.2500 0.1250-0.0000  plane waves:   13020
 k-point  6 :   0.5000 0.1250-0.0000  plane waves:   13004
 k-point  7 :  -0.2500 0.1250 0.0000  plane waves:   13016
 k-point  8 :  -0.0000 0.2500 0.0000  plane waves:   12997
 k-point  9 :   0.2500 0.2500-0.0000  plane waves:   13006
 k-point 10 :   0.5000 0.2500-0.0000  plane waves:   12985
 k-point 11 :  -0.2500 0.2500 0.0000  plane waves:   12997
 k-point 12 :  -0.0000 0.3750 0.0000  plane waves:   13006
 k-point 13 :   0.2500 0.3750-0.0000  plane waves:   13009
 k-point 14 :   0.5000 0.3750-0.0000  plane waves:   12994
 k-point 15 :  -0.2500 0.3750 0.0000  plane waves:   13007
 k-point 16 :  -0.0000 0.5000 0.0000  plane waves:   12984
 k-point 17 :   0.2500 0.5000-0.0000  plane waves:   13012
 k-point 18 :   0.5000 0.5000-0.0000  plane waves:   13008
 k-point 19 :   0.0000 0.0000 0.2500  plane waves:   13035
 k-point 20 :   0.2500 0.0000 0.2500  plane waves:   13016
 k-point 21 :   0.5000 0.0000 0.2500  plane waves:   13013
 k-point 22 :  -0.2500-0.0000 0.2500  plane waves:   13030
 k-point 23 :   0.0000 0.1250 0.2500  plane waves:   13030
 k-point 24 :   0.2500 0.1250 0.2500  plane waves:   13014
 k-point 25 :   0.5000 0.1250 0.2500  plane waves:   13001
 k-point 26 :  -0.2500 0.1250 0.2500  plane waves:   13020
 k-point 27 :   0.0000 0.2500 0.2500  plane waves:   13019
 k-point 28 :   0.2500 0.2500 0.2500  plane waves:   13016
 k-point 29 :   0.5000 0.2500 0.2500  plane waves:   13008
 k-point 30 :  -0.2500 0.2500 0.2500  plane waves:   13020
 k-point 31 :   0.0000 0.3750 0.2500  plane waves:   12998
 k-point 32 :   0.2500 0.3750 0.2500  plane waves:   13001
 k-point 33 :   0.5000 0.3750 0.2500  plane waves:   13020
 k-point 34 :  -0.2500 0.3750 0.2500  plane waves:   12993
 k-point 35 :   0.0000 0.5000 0.2500  plane waves:   13000
 k-point 36 :   0.2500 0.5000 0.2500  plane waves:   13001
 k-point 37 :   0.5000 0.5000 0.2500  plane waves:   13005
 k-point 38 :  -0.2500 0.5000 0.2500  plane waves:   12993
 k-point 39 :   0.0000-0.3750 0.2500  plane waves:   13004
 k-point 40 :   0.2500-0.3750 0.2500  plane waves:   13006
 k-point 41 :   0.5000-0.3750 0.2500  plane waves:   13011
 k-point 42 :  -0.2500-0.3750 0.2500  plane waves:   12986
 k-point 43 :   0.0000-0.2500 0.2500  plane waves:   13009
 k-point 44 :   0.2500-0.2500 0.2500  plane waves:   13009
 k-point 45 :   0.5000-0.2500 0.2500  plane waves:   13015
 k-point 46 :  -0.2500-0.2500 0.2500  plane waves:   13030
 k-point 47 :   0.0000-0.1250 0.2500  plane waves:   13025
 k-point 48 :   0.2500-0.1250 0.2500  plane waves:   13017
 k-point 49 :   0.5000-0.1250 0.2500  plane waves:   13006
 k-point 50 :  -0.2500-0.1250 0.2500  plane waves:   13032
 k-point 51 :   0.0000 0.0000 0.5000  plane waves:   13042
 k-point 52 :   0.2500 0.0000 0.5000  plane waves:   13023
 k-point 53 :   0.5000 0.0000 0.5000  plane waves:   13026
 k-point 54 :   0.0000 0.1250 0.5000  plane waves:   13012
 k-point 55 :   0.2500 0.1250 0.5000  plane waves:   13027
 k-point 56 :   0.5000 0.1250 0.5000  plane waves:   13028
 k-point 57 :  -0.2500 0.1250 0.5000  plane waves:   13023
 k-point 58 :   0.0000 0.2500 0.5000  plane waves:   13013
 k-point 59 :   0.2500 0.2500 0.5000  plane waves:   13023
 k-point 60 :   0.5000 0.2500 0.5000  plane waves:   13028
 k-point 61 :  -0.2500 0.2500 0.5000  plane waves:   13013
 k-point 62 :   0.0000 0.3750 0.5000  plane waves:   13001
 k-point 63 :   0.2500 0.3750 0.5000  plane waves:   12994
 k-point 64 :   0.5000 0.3750 0.5000  plane waves:   13030
 k-point 65 :  -0.2500 0.3750 0.5000  plane waves:   12996
 k-point 66 :   0.0000 0.5000 0.5000  plane waves:   13026
 k-point 67 :   0.2500 0.5000 0.5000  plane waves:   12989
 k-point 68 :   0.5000 0.5000 0.5000  plane waves:   12958

 maximum and minimum number of plane-waves per node :      3307     3201

 maximum number of plane-waves:     13042
 maximum index in each direction: 
   IXMAX=   16   IYMAX=   10   IZMAX=   18
   IXMIN=  -17   IYMIN=  -10   IZMIN=  -18


 real space projection operators:
  total allocation   :       6239.50 KBytes
  max/ min on nodes  :       1625.31       1494.48


 parallel 3D FFT for wavefunctions:
    minimum data exchange during FFTs selected (reduces bandwidth)
 parallel 3D FFT for charge:
    minimum data exchange during FFTs selected (reduces bandwidth)


 total amount of memory used by VASP MPI-rank0   142498. kBytes
=======================================================================

   base      :      30000. kBytes
   nonlr-proj:       4224. kBytes
   fftplans  :       1587. kBytes
   grid      :       2924. kBytes
   one-center:        186. kBytes
   wavefun   :     103577. kBytes
 
     INWAV:  cpu time    0.0001: real time    0.0002
 Broyden mixing: mesh for mixing (old mesh)
   NGX = 33   NGY = 21   NGZ = 37
  (NGX  =100   NGY  = 64   NGZ  =108)
  gives a total of  25641 points

 initial charge density was supplied:
 charge density of overlapping atoms calculated
 number of electron     370.0000000 magnetization 
 keeping initial charge density in first step


--------------------------------------------------------------------------------------------------------


 Maximum index for non-local projection operator          777
 Maximum index for augmentation-charges         1033 (set IRDMAX)


--------------------------------------------------------------------------------------------------------


 First call to EWALD:  gamma=   0.221
 Maximum number of real-space cells 2x 4x 2
 Maximum number of reciprocal cells 3x 2x 3

    FEWALD:  cpu time    0.0017: real time    0.0024


--------------------------------------- Iteration      1(   1)  ---------------------------------------


    POTLOK:  cpu time    0.0168: real time    0.0195
    SETDIJ:  cpu time    0.0041: real time    0.0042
     EDDAV:  cpu time   19.1919: real time   19.1997
 BZINTS: Fermi energy: 23.514478;370.000000 electrons
         Band energy:1024.848491;  BLOECHL correction: -0.064312
       DOS:  cpu time    0.1302: real time    0.1302
    --------------------------------------------
      LOOP:  cpu time   19.3429: real time   19.3535

 eigenvalue-minimisations  : 33816
 total energy-change (2. order) : 0.4386795E+04  (-0.2087456E+05)
 number of electron     370.0000000 magnetization 
 augmentation part      370.0000000 magnetization 

 Free energy of the ion-electron system (eV)
  ---------------------------------------------------
  alpha Z        PSCENC =      1846.48081312
  Ewald energy   TEWEN  =    -27871.58616584
  -Hartree energ DENC   =    -15856.95502842
  -exchange      EXHF   =         0.00000000
  -V(xc)+E(xc)   XCENC  =      1246.46128925
  PAW double counting   =     37467.60136202   -38188.76428185
  entropy T*S    EENTRO =         0.00000000
  eigenvalues    EBANDS =      1024.84849066
  atomic energy  EATOM  =     44718.70844369
  Solvation  Ediel_sol  =         0.00000000
  ---------------------------------------------------
  free energy    TOTEN  =      4386.79492262 eV

  energy without entropy =     4386.79492262  energy(sigma->0) =     4386.79492262


--------------------------------------------------------------------------------------------------------




--------------------------------------- Iteration      1(   2)  ---------------------------------------


     EDDAV:  cpu time   18.3405: real time   18.3452
 BZINTS: Fermi energy:  8.530067;370.000000 electrons
         Band energy:***********;  BLOECHL correction: -0.040009
       DOS:  cpu time    0.1149: real time    0.1149
    --------------------------------------------
      LOOP:  cpu time   18.4554: real time   18.4601

 eigenvalue-minimisations  : 32552
 total energy-change (2. order) :-0.4273043E+04  (-0.4021370E+04)
 number of electron     370.0000000 magnetization 
 augmentation part      370.0000000 magnetization 

 Free energy of the ion-electron system (eV)
  ---------------------------------------------------
  alpha Z        PSCENC =      1846.48081312
  Ewald energy   TEWEN  =    -27871.58616584
  -Hartree energ DENC   =    -15856.95502842
  -exchange      EXHF   =         0.00000000
  -V(xc)+E(xc)   XCENC  =      1246.46128925
  PAW double counting   =     37467.60136202   -38188.76428185
  entropy T*S    EENTRO =         0.00000000
  eigenvalues    EBANDS =     -3248.19428358
  atomic energy  EATOM  =     44718.70844369
  Solvation  Ediel_sol  =         0.00000000
  ---------------------------------------------------
  free energy    TOTEN  =       113.75214838 eV

  energy without entropy =      113.75214838  energy(sigma->0) =      113.75214838


--------------------------------------------------------------------------------------------------------




--------------------------------------- Iteration      1(   3)  ---------------------------------------


     EDDAV:  cpu time   19.0975: real time   19.1017
 BZINTS: Fermi energy:  6.767172;370.000000 electrons
         Band energy:***********;  BLOECHL correction: -0.009436
       DOS:  cpu time    0.1363: real time    0.1362
    --------------------------------------------
      LOOP:  cpu time   19.2338: real time   19.2379

 eigenvalue-minimisations  : 34208
 total energy-change (2. order) :-0.5579441E+03  (-0.5360460E+03)
 number of electron     370.0000000 magnetization 
 augmentation part      370.0000000 magnetization 

 Free energy of the ion-electron system (eV)
  ---------------------------------------------------
  alpha Z        PSCENC =      1846.48081312
  Ewald energy   TEWEN  =    -27871.58616584
  -Hartree energ DENC   =    -15856.95502842
  -exchange      EXHF   =         0.00000000
  -V(xc)+E(xc)   XCENC  =      1246.46128925
  PAW double counting   =     37467.60136202   -38188.76428185
  entropy T*S    EENTRO =         0.00000000
  eigenvalues    EBANDS =     -3806.13833365
  atomic energy  EATOM  =     44718.70844369
  Solvation  Ediel_sol  =         0.00000000
  ---------------------------------------------------
  free energy    TOTEN  =      -444.19190169 eV

  energy without entropy =     -444.19190169  energy(sigma->0) =     -444.19190169


--------------------------------------------------------------------------------------------------------




--------------------------------------- Iteration      1(   4)  ---------------------------------------


     EDDAV:  cpu time   20.1599: real time   20.1635
 BZINTS: Fermi energy:  6.618585;370.000000 electrons
         Band energy:***********;  BLOECHL correction: -0.008306
       DOS:  cpu time    0.1430: real time    0.1430
    --------------------------------------------
      LOOP:  cpu time   20.3028: real time   20.3064

 eigenvalue-minimisations  : 36640
 total energy-change (2. order) :-0.2672260E+02  (-0.2589740E+02)
 number of electron     370.0000000 magnetization 
 augmentation part      370.0000000 magnetization 

 Free energy of the ion-electron system (eV)
  ---------------------------------------------------
  alpha Z        PSCENC =      1846.48081312
  Ewald energy   TEWEN  =    -27871.58616584
  -Hartree energ DENC   =    -15856.95502842
  -exchange      EXHF   =         0.00000000
  -V(xc)+E(xc)   XCENC  =      1246.46128925
  PAW double counting   =     37467.60136202   -38188.76428185
  entropy T*S    EENTRO =         0.00000000
  eigenvalues    EBANDS =     -3832.86093303
  atomic energy  EATOM  =     44718.70844369
  Solvation  Ediel_sol  =         0.00000000
  ---------------------------------------------------
  free energy    TOTEN  =      -470.91450107 eV

  energy without entropy =     -470.91450107  energy(sigma->0) =     -470.91450107


--------------------------------------------------------------------------------------------------------




--------------------------------------- Iteration      1(   5)  ---------------------------------------


     EDDAV:  cpu time   21.1617: real time   21.1651
 BZINTS: Fermi energy:  6.613799;370.000000 electrons
         Band energy:***********;  BLOECHL correction: -0.008363
       DOS:  cpu time    0.1386: real time    0.1386
    CHARGE:  cpu time    0.4539: real time    0.4539
    MIXING:  cpu time    0.0012: real time    0.0013
    --------------------------------------------
      LOOP:  cpu time   21.7553: real time   21.7589

 eigenvalue-minimisations  : 39080
 total energy-change (2. order) :-0.9298048E+00  (-0.9262694E+00)
 number of electron     369.9999987 magnetization 
 augmentation part      102.0282546 magnetization 

 Broyden mixing:
  rms(total) = 0.15035E+02    rms(broyden)= 0.15032E+02
  rms(prec ) = 0.16100E+02
  weight for this iteration     100.00

 Free energy of the ion-electron system (eV)
  ---------------------------------------------------
  alpha Z        PSCENC =      1846.48081312
  Ewald energy   TEWEN  =    -27871.58616584
  -Hartree energ DENC   =    -15856.95502842
  -exchange      EXHF   =         0.00000000
  -V(xc)+E(xc)   XCENC  =      1246.46128925
  PAW double counting   =     37467.60136202   -38188.76428185
  entropy T*S    EENTRO =         0.00000000
  eigenvalues    EBANDS =     -3833.79073780
  atomic energy  EATOM  =     44718.70844369
  Solvation  Ediel_sol  =         0.00000000
  ---------------------------------------------------
  free energy    TOTEN  =      -471.84430584 eV

  energy without entropy =     -471.84430584  energy(sigma->0) =     -471.84430584


--------------------------------------------------------------------------------------------------------




--------------------------------------- Iteration      1(   6)  ---------------------------------------


    POTLOK:  cpu time    0.0130: real time    0.0131
    SETDIJ:  cpu time    0.0039: real time    0.0039
     EDDAV:  cpu time   21.2837: real time   21.2890
 BZINTS: Fermi energy:  4.799355;370.000000 electrons
         Band energy:***********;  BLOECHL correction: -0.005126
       DOS:  cpu time    0.1468: real time    0.1468
    CHARGE:  cpu time    0.4534: real time    0.4535
    MIXING:  cpu time    0.0008: real time    0.0009
    --------------------------------------------
      LOOP:  cpu time   21.9017: real time   21.9072

 eigenvalue-minimisations  : 39360
 total energy-change (2. order) : 0.3068856E+02  (-0.6339817E+02)
 number of electron     369.9999897 magnetization 
 augmentation part      105.0495258 magnetization 

 Broyden mixing:
  rms(total) = 0.14127E+02    rms(broyden)= 0.14124E+02
  rms(prec ) = 0.17144E+02
  weight for this iteration     100.00

 eigenvalues of (default mixing * dielectric matrix)
  average eigenvalue GAMMA=   0.5530
  0.5530

 Free energy of the ion-electron system (eV)
  ---------------------------------------------------
  alpha Z        PSCENC =      1846.48081312
  Ewald energy   TEWEN  =    -27871.58616584
  -Hartree energ DENC   =    -15806.72852605
  -exchange      EXHF   =         0.00000000
  -V(xc)+E(xc)   XCENC  =      1274.51373447
  PAW double counting   =     41934.54902611   -42622.13683085
  entropy T*S    EENTRO =         0.00000000
  eigenvalues    EBANDS =     -3914.95623753
  atomic energy  EATOM  =     44718.70844369
  Solvation  Ediel_sol  =         0.00000000
  ---------------------------------------------------
  free energy    TOTEN  =      -441.15574289 eV

  energy without entropy =     -441.15574289  energy(sigma->0) =     -441.15574289


--------------------------------------------------------------------------------------------------------




--------------------------------------- Iteration      1(   7)  ---------------------------------------


    POTLOK:  cpu time    0.0131: real time    0.0141
    SETDIJ:  cpu time    0.0038: real time    0.0038
     EDDAV:  cpu time   20.2712: real time   20.2734
 BZINTS: Fermi energy:  6.186185;370.000000 electrons
         Band energy:***********;  BLOECHL correction: -0.010105
       DOS:  cpu time    0.1436: real time    0.1436
    CHARGE:  cpu time    0.4535: real time    0.4535
    MIXING:  cpu time    0.0007: real time    0.0007
    --------------------------------------------
      LOOP:  cpu time   20.8859: real time   20.8891

 eigenvalue-minimisations  : 36960
 total energy-change (2. order) : 0.2069638E+01  (-0.2611217E+02)
 number of electron     369.9999990 magnetization 
 augmentation part       99.2360614 magnetization 

 Broyden mixing:
  rms(total) = 0.14174E+02    rms(broyden)= 0.14172E+02
  rms(prec ) = 0.15968E+02
  weight for this iteration     100.00

 eigenvalues of (default mixing * dielectric matrix)
  average eigenvalue GAMMA=   0.5590
  0.8824  0.2357

 Free energy of the ion-electron system (eV)
  ---------------------------------------------------
  alpha Z        PSCENC =      1846.48081312
  Ewald energy   TEWEN  =    -27871.58616584
  -Hartree energ DENC   =    -15800.77036444
  -exchange      EXHF   =         0.00000000
  -V(xc)+E(xc)   XCENC  =      1272.72742816
  PAW double counting   =     44183.38911845   -44913.15089831
  entropy T*S    EENTRO =         0.00000000
  eigenvalues    EBANDS =     -3874.88448006
  atomic energy  EATOM  =     44718.70844369
  Solvation  Ediel_sol  =         0.00000000
  ---------------------------------------------------
  free energy    TOTEN  =      -439.08610522 eV

  energy without entropy =     -439.08610522  energy(sigma->0) =     -439.08610522


--------------------------------------------------------------------------------------------------------




--------------------------------------- Iteration      1(   8)  ---------------------------------------


    POTLOK:  cpu time    0.0130: real time    0.0137
    SETDIJ:  cpu time    0.0038: real time    0.0038
     EDDAV:  cpu time   21.1919: real time   21.1944
 BZINTS: Fermi energy:  5.195352;370.000000 electrons
         Band energy:***********;  BLOECHL correction: -0.010095
       DOS:  cpu time    0.1360: real time    0.1360
    CHARGE:  cpu time    0.4529: real time    0.4530
    MIXING:  cpu time    0.0007: real time    0.0007
    --------------------------------------------
      LOOP:  cpu time   21.7983: real time   21.8016

 eigenvalue-minimisations  : 39232
 total energy-change (2. order) :-0.6962859E+01  (-0.1637370E+02)
 number of electron     369.9999881 magnetization 
 augmentation part      105.7140377 magnetization 

 Broyden mixing:
  rms(total) = 0.10331E+02    rms(broyden)= 0.10330E+02
  rms(prec ) = 0.11588E+02
  weight for this iteration     100.00

 eigenvalues of (default mixing * dielectric matrix)
  average eigenvalue GAMMA=   0.5257
  0.9949  0.2912  0.2912

 Free energy of the ion-electron system (eV)
  ---------------------------------------------------
  alpha Z        PSCENC =      1846.48081312
  Ewald energy   TEWEN  =    -27871.58616584
  -Hartree energ DENC   =    -15505.31603337
  -exchange      EXHF   =         0.00000000
  -V(xc)+E(xc)   XCENC  =      1261.89879877
  PAW double counting   =     46278.53924960   -47018.28471212
  entropy T*S    EENTRO =         0.00000000
  eigenvalues    EBANDS =     -4156.48935840
  atomic energy  EATOM  =     44718.70844369
  Solvation  Ediel_sol  =         0.00000000
  ---------------------------------------------------
  free energy    TOTEN  =      -446.04896455 eV

  energy without entropy =     -446.04896455  energy(sigma->0) =     -446.04896455


--------------------------------------------------------------------------------------------------------




--------------------------------------- Iteration      1(   9)  ---------------------------------------


    POTLOK:  cpu time    0.0129: real time    0.0130
    SETDIJ:  cpu time    0.0038: real time    0.0038
     EDDAV:  cpu time   20.0566: real time   20.0595
 BZINTS: Fermi energy:  4.934538;370.000000 electrons
         Band energy:***********;  BLOECHL correction: -0.003219
       DOS:  cpu time    0.1424: real time    0.1424
    CHARGE:  cpu time    0.4535: real time    0.4535
    MIXING:  cpu time    0.0007: real time    0.0007
    --------------------------------------------
      LOOP:  cpu time   20.6699: real time   20.6730

 eigenvalue-minimisations  : 36592
 total energy-change (2. order) : 0.3371505E+02  (-0.8099347E+01)
 number of electron     369.9999946 magnetization 
 augmentation part      104.5263764 magnetization 

 Broyden mixing:
  rms(total) = 0.78580E+01    rms(broyden)= 0.78534E+01
  rms(prec ) = 0.10325E+02
  weight for this iteration     100.00

 eigenvalues of (default mixing * dielectric matrix)
  average eigenvalue GAMMA=   0.7049
  1.6808  0.6317  0.3139  0.1931

 Free energy of the ion-electron system (eV)
  ---------------------------------------------------
  alpha Z        PSCENC =      1846.48081312
  Ewald energy   TEWEN  =    -27871.58616584
  -Hartree energ DENC   =    -15654.16916119
  -exchange      EXHF   =         0.00000000
  -V(xc)+E(xc)   XCENC  =      1267.24734241
  PAW double counting   =     48002.25248574   -48772.11185400
  entropy T*S    EENTRO =         0.00000000
  eigenvalues    EBANDS =     -3949.15581460
  atomic energy  EATOM  =     44718.70844369
  Solvation  Ediel_sol  =         0.00000000
  ---------------------------------------------------
  free energy    TOTEN  =      -412.33391067 eV

  energy without entropy =     -412.33391067  energy(sigma->0) =     -412.33391067


--------------------------------------------------------------------------------------------------------




--------------------------------------- Iteration      1(  10)  ---------------------------------------


    POTLOK:  cpu time    0.0129: real time    0.0130
    SETDIJ:  cpu time    0.0038: real time    0.0038
     EDDAV:  cpu time   22.3268: real time   22.3306
 BZINTS: Fermi energy:  6.281870;370.000000 electrons
         Band energy:***********;  BLOECHL correction: -0.003095
       DOS:  cpu time    0.1298: real time    0.1298
    CHARGE:  cpu time    0.4539: real time    0.4539
    MIXING:  cpu time    0.0009: real time    0.0009
    --------------------------------------------
      LOOP:  cpu time   22.9281: real time   22.9320

 eigenvalue-minimisations  : 41656
 total energy-change (2. order) :-0.6150885E+02  (-0.1954862E+02)
 number of electron     369.9999789 magnetization 
 augmentation part       92.7731867 magnetization 

 Broyden mixing:
  rms(total) = 0.14494E+02    rms(broyden)= 0.14493E+02
  rms(prec ) = 0.20510E+02
  weight for this iteration     100.00

 eigenvalues of (default mixing * dielectric matrix)
  average eigenvalue GAMMA=   0.6436
  1.9022  0.4737  0.4737  0.2371  0.1313

 Free energy of the ion-electron system (eV)
  ---------------------------------------------------
  alpha Z        PSCENC =      1846.48081312
  Ewald energy   TEWEN  =    -27871.58616584
  -Hartree energ DENC   =    -15995.40284816
  -exchange      EXHF   =         0.00000000
  -V(xc)+E(xc)   XCENC  =      1279.56818359
  PAW double counting   =     51219.40858269   -52043.33943867
  entropy T*S    EENTRO =         0.00000000
  eigenvalues    EBANDS =     -3627.68033087
  atomic energy  EATOM  =     44718.70844369
  Solvation  Ediel_sol  =         0.00000000
  ---------------------------------------------------
  free energy    TOTEN  =      -473.84276045 eV

  energy without entropy =     -473.84276045  energy(sigma->0) =     -473.84276045


--------------------------------------------------------------------------------------------------------




--------------------------------------- Iteration      1(  11)  ---------------------------------------


    POTLOK:  cpu time    0.0132: real time    0.0136
    SETDIJ:  cpu time    0.0038: real time    0.0038
     EDDAV:  cpu time   21.8936: real time   21.8963
 BZINTS: Fermi energy:  3.788390;370.000000 electrons
         Band energy:***********;  BLOECHL correction: -0.000843
       DOS:  cpu time    0.1289: real time    0.1289
    CHARGE:  cpu time    0.4546: real time    0.4546
    MIXING:  cpu time    0.0009: real time    0.0009
    --------------------------------------------
      LOOP:  cpu time   22.4949: real time   22.4981

 eigenvalue-minimisations  : 40656
 total energy-change (2. order) : 0.6998883E+02  (-0.4633881E+01)
 number of electron     369.9999957 magnetization 
 augmentation part      105.9792787 magnetization 

 Broyden mixing:
  rms(total) = 0.66169E+01    rms(broyden)= 0.66152E+01
  rms(prec ) = 0.86177E+01
  weight for this iteration     100.00

 eigenvalues of (default mixing * dielectric matrix)
  average eigenvalue GAMMA=   0.5630
  1.9063  0.4711  0.4711  0.2625  0.1418  0.1254

 Free energy of the ion-electron system (eV)
  ---------------------------------------------------
  alpha Z        PSCENC =      1846.48081312
  Ewald energy   TEWEN  =    -27871.58616584
  -Hartree energ DENC   =    -15625.93642787
  -exchange      EXHF   =         0.00000000
  -V(xc)+E(xc)   XCENC  =      1269.19127725
  PAW double counting   =     52042.77627112   -52844.36597689
  entropy T*S    EENTRO =         0.00000000
  eigenvalues    EBANDS =     -3939.12216418
  atomic energy  EATOM  =     44718.70844369
  Solvation  Ediel_sol  =         0.00000000
  ---------------------------------------------------
  free energy    TOTEN  =      -403.85392959 eV

  energy without entropy =     -403.85392959  energy(sigma->0) =     -403.85392959


--------------------------------------------------------------------------------------------------------




--------------------------------------- Iteration      1(  12)  ---------------------------------------


    POTLOK:  cpu time    0.0128: real time    0.0130
    SETDIJ:  cpu time    0.0038: real time    0.0038
     EDDAV:  cpu time   22.1483: real time   22.1516
 BZINTS: Fermi energy:  3.544062;370.000000 electrons
         Band energy:***********;  BLOECHL correction: -0.009421
       DOS:  cpu time    0.1307: real time    0.1307
    CHARGE:  cpu time    0.4544: real time    0.4545
    MIXING:  cpu time    0.0009: real time    0.0009
    --------------------------------------------
      LOOP:  cpu time   22.7510: real time   22.7545

 eigenvalue-minimisations  : 41256
 total energy-change (2. order) : 0.1026251E+02  (-0.3578631E+01)
 number of electron     369.9999882 magnetization 
 augmentation part      106.4796106 magnetization 

 Broyden mixing:
  rms(total) = 0.44223E+01    rms(broyden)= 0.44193E+01
  rms(prec ) = 0.55917E+01
  weight for this iteration     100.00

 eigenvalues of (default mixing * dielectric matrix)
  average eigenvalue GAMMA=   0.5574
  1.6430  0.7148  0.7148  0.3401  0.1861  0.1861  0.1166

 Free energy of the ion-electron system (eV)
  ---------------------------------------------------
  alpha Z        PSCENC =      1846.48081312
  Ewald energy   TEWEN  =    -27871.58616584
  -Hartree energ DENC   =    -15654.11352961
  -exchange      EXHF   =         0.00000000
  -V(xc)+E(xc)   XCENC  =      1269.82093779
  PAW double counting   =     52223.21925380   -53027.62523984
  entropy T*S    EENTRO =         0.00000000
  eigenvalues    EBANDS =     -3898.49593292
  atomic energy  EATOM  =     44718.70844369
  Solvation  Ediel_sol  =         0.00000000
  ---------------------------------------------------
  free energy    TOTEN  =      -393.59141981 eV

  energy without entropy =     -393.59141981  energy(sigma->0) =     -393.59141981


--------------------------------------------------------------------------------------------------------




--------------------------------------- Iteration      1(  13)  ---------------------------------------


    POTLOK:  cpu time    0.0129: real time    0.0130
    SETDIJ:  cpu time    0.0038: real time    0.0038
     EDDAV:  cpu time   22.0158: real time   22.0188
 BZINTS: Fermi energy:  4.001546;370.000000 electrons
         Band energy:***********;  BLOECHL correction:  0.000000
       DOS:  cpu time    0.0283: real time    0.0283
    CHARGE:  cpu time    0.4546: real time    0.4546
    MIXING:  cpu time    0.0010: real time    0.0010
    --------------------------------------------
      LOOP:  cpu time   22.5164: real time   22.5194

 eigenvalue-minimisations  : 40904
 total energy-change (2. order) : 0.2445641E+01  (-0.5202273E+01)
 number of electron     369.9999875 magnetization 
 augmentation part      104.2779889 magnetization 

 Broyden mixing:
  rms(total) = 0.74941E+01    rms(broyden)= 0.74922E+01
  rms(prec ) = 0.10603E+02
  weight for this iteration     100.00

 eigenvalues of (default mixing * dielectric matrix)
  average eigenvalue GAMMA=   0.5093
  1.6238  0.7529  0.7529  0.3258  0.2030  0.2030  0.1196  0.0937

 Free energy of the ion-electron system (eV)
  ---------------------------------------------------
  alpha Z        PSCENC =      1846.48081312
  Ewald energy   TEWEN  =    -27871.58616584
  -Hartree energ DENC   =    -15741.55362038
  -exchange      EXHF   =         0.00000000
  -V(xc)+E(xc)   XCENC  =      1270.35418871
  PAW double counting   =     51916.81022688   -52720.19050403
  entropy T*S    EENTRO =         0.00000000
  eigenvalues    EBANDS =     -3810.16916082
  atomic energy  EATOM  =     44718.70844369
[...]
  0.002  -0.002   0.001   0.002   0.000   0.000   0.011   0.005   0.025   0.023   0.013  -0.009  -0.001  -0.014  -0.009  -0.003


------------------------ aborting loop because EDIFF is reached ----------------------------------------


 


 total charge     
 
# of ion       s       p       d       tot
------------------------------------------
    1        0.212   6.198   7.865  14.276
    2        0.212   6.198   7.867  14.278
    3        0.212   6.197   7.868  14.277
    4        0.214   6.200   7.876  14.289
    5        0.214   6.200   7.875  14.289
    6        0.212   6.197   7.867  14.276
    7        1.572   3.475   0.000   5.047
    8        1.571   3.461   0.000   5.032
    9        1.572   3.475   0.000   5.047
   10        1.571   3.461   0.000   5.032
   11        1.571   3.459   0.000   5.031
   12        1.571   3.452   0.000   5.023
   13        1.571   3.459   0.000   5.030
   14        1.571   3.453   0.000   5.023
   15        1.572   3.476   0.000   5.048
   16        1.572   3.461   0.000   5.032
   17        1.572   3.476   0.000   5.048
   18        1.572   3.461   0.000   5.032
   19        1.571   3.453   0.000   5.023
   20        1.571   3.460   0.000   5.031
   21        1.571   3.453   0.000   5.023
   22        1.571   3.460   0.000   5.031
   23        1.578   3.441   0.000   5.019
   24        1.574   3.442   0.000   5.016
   25        1.578   3.441   0.000   5.019
   26        1.574   3.442   0.000   5.016
   27        1.577   3.440   0.000   5.017
   28        1.575   3.441   0.000   5.016
   29        1.577   3.440   0.000   5.017
   30        1.575   3.441   0.000   5.016
   31        1.574   3.443   0.000   5.017
   32        1.578   3.441   0.000   5.019
   33        1.574   3.443   0.000   5.017
   34        1.578   3.441   0.000   5.019
   35        1.577   3.440   0.000   5.017
   36        1.575   3.442   0.000   5.017
   37        1.577   3.440   0.000   5.017
   38        1.575   3.442   0.000   5.017
   39        0.699   1.007   4.147   5.853
   40        0.697   1.004   4.143   5.845
   41        0.699   1.007   4.147   5.853
   42        0.697   1.004   4.143   5.845
   43        0.694   1.004   4.136   5.835
   44        0.693   1.004   4.129   5.826
   45        0.694   1.004   4.136   5.835
   46        0.693   1.004   4.129   5.826
   47        0.176   6.137   8.893  15.206
   48        0.176   6.137   8.893  15.206
--------------------------------------------------
tot         57.552 167.957  98.114 323.623
 
    CHARGE:  cpu time    0.4549: real time    0.4551
    FORLOC:  cpu time    0.0053: real time    0.0053
    FORNL :  cpu time    2.7746: real time    2.7754
    STRESS:  cpu time    8.3578: real time    8.3602
    FORCOR:  cpu time    0.0181: real time    0.0182
    FORHAR:  cpu time    0.0079: real time    0.0079
    MIXING:  cpu time    0.0042: real time    0.0042
    OFIELD:  cpu time    0.0001: real time    0.0001

  FORCE on cell =-STRESS in cart. coord.  units (eV):
  Direction    XX          YY          ZZ          XY          YZ          ZX
  --------------------------------------------------------------------------------------
  Alpha Z  1846.48081  1846.48081  1846.48081
  Ewald  -10704.36948 -9808.88670 -7358.46292   -13.59168    16.06972   134.93724
  Hartree  4201.23655  4938.73392  6761.07608    -6.60325     8.17776    24.67877
  E(xc)   -2154.73811 -2152.49732 -2154.44494    -0.03168    -0.00173    -1.04475
  Local      66.12138 -1555.46603 -5772.17774    19.31273   -23.40999  -144.30761
  n-local -1504.56739 -1514.62281 -1493.06217    -0.21786     0.14356     1.68965
  augment  1696.08893  1701.46741  1686.31044     0.45382    -0.30154    -5.63226
  Kinetic  6553.68865  6544.69329  6484.23479     0.66134    -0.66843   -10.38522
  Fock        0.00000     0.00000     0.00000     0.00000     0.00000     0.00000
  -------------------------------------------------------------------------------------
  Total      -0.05865    -0.09742    -0.04565    -0.01658     0.00934    -0.06417
  in kB      -0.18335    -0.30455    -0.14272    -0.05183     0.02921    -0.20061
  external pressure =       -0.21 kB  Pullay stress =        0.00 kB


 VOLUME and BASIS-vectors are now :
 -----------------------------------------------------------------------------
  energy-cutoff  :      500.00
  volume of cell :      512.50
      direct lattice vectors                 reciprocal lattice vectors
     9.141006724  0.007499215 -0.049771731     0.109401138 -0.000089091  0.000720623
     0.004612306  5.664142415  0.000049163    -0.000144856  0.176549351 -0.000002913
    -0.065202591  0.000109847  9.898726835     0.000550080 -0.000001325  0.101026716

  length of vectors
     9.141145300  5.664144294  9.898941577     0.109403547  0.176549411  0.101028214


 FORCES acting on ions
    electron-ion (+dipol)            ewald-force                    non-local-force                 convergence-correction
 -----------------------------------------------------------------------------------------------
   -.671E+01 -.259E+03 -.250E+02   0.659E+01 0.260E+03 0.255E+02   0.126E+00 -.101E+01 -.521E+00   0.111E-03 -.546E-02 0.391E-01
   -.678E+01 -.258E+03 -.245E+02   0.667E+01 0.259E+03 0.250E+02   0.119E+00 -.102E+01 -.533E+00   0.259E-03 0.102E-02 0.569E-01
   0.611E+01 -.259E+03 0.236E+02   -.603E+01 0.260E+03 -.241E+02   -.756E-01 -.985E+00 0.645E+00   -.131E-02 0.189E-02 -.569E-01
   -.689E+00 0.263E+03 0.551E-02   0.653E+00 -.264E+03 0.656E-02   0.408E-01 0.125E+01 -.258E-01   0.190E-02 -.164E-01 0.179E-01
   -.569E+00 0.263E+03 0.138E+00   0.535E+00 -.264E+03 -.120E+00   0.399E-01 0.125E+01 -.267E-01   -.118E-02 0.957E-02 0.132E-01
   0.614E+01 -.259E+03 0.235E+02   -.606E+01 0.260E+03 -.241E+02   -.756E-01 -.985E+00 0.647E+00   0.310E-03 -.504E-02 -.385E-01
   0.663E+02 0.109E+03 -.436E+02   -.535E+02 -.107E+03 0.359E+02   -.129E+02 -.164E+01 0.774E+01   0.163E-01 0.921E-02 -.150E-01
   0.630E+02 0.113E+03 -.424E+02   -.512E+02 -.112E+03 0.360E+02   -.118E+02 -.785E+00 0.647E+01   0.123E-01 -.257E-02 0.116E-01
   0.663E+02 0.109E+03 -.436E+02   -.534E+02 -.107E+03 0.359E+02   -.129E+02 -.165E+01 0.774E+01   -.323E-02 0.104E-01 -.209E-01
   0.630E+02 0.113E+03 -.424E+02   -.511E+02 -.112E+03 0.360E+02   -.118E+02 -.782E+00 0.646E+01   -.215E-01 -.983E-02 0.168E-01
   -.671E+02 -.115E+03 0.380E+02   0.558E+02 0.116E+03 -.310E+02   0.114E+02 -.170E+00 -.704E+01   -.203E-01 -.878E-02 0.183E-01
   -.561E+02 -.105E+03 0.429E+02   0.436E+02 0.104E+03 -.369E+02   0.125E+02 0.531E+00 -.597E+01   -.154E-01 -.352E-02 -.125E-01
   -.673E+02 -.116E+03 0.381E+02   0.559E+02 0.116E+03 -.310E+02   0.114E+02 -.176E+00 -.704E+01   0.190E-01 0.621E-02 0.118E-01
   -.561E+02 -.105E+03 0.428E+02   0.436E+02 0.104E+03 -.368E+02   0.125E+02 0.543E+00 -.597E+01   0.190E-01 0.144E-01 -.232E-01
   -.670E+02 0.109E+03 0.432E+02   0.542E+02 -.108E+03 -.356E+02   0.128E+02 -.169E+01 -.764E+01   -.154E-01 0.798E-02 0.801E-02
   -.616E+02 0.113E+03 0.432E+02   0.495E+02 -.112E+03 -.370E+02   0.121E+02 -.856E+00 -.618E+01   -.123E-01 -.199E-02 -.461E-02
   -.672E+02 0.109E+03 0.433E+02   0.544E+02 -.107E+03 -.357E+02   0.128E+02 -.170E+01 -.764E+01   0.128E-02 0.105E-01 0.121E-01
   -.617E+02 0.113E+03 0.431E+02   0.495E+02 -.112E+03 -.370E+02   0.121E+02 -.853E+00 -.619E+01   0.223E-01 -.900E-02 -.764E-02
   0.580E+02 -.107E+03 -.444E+02   -.456E+02 0.106E+03 0.387E+02   -.124E+02 0.410E+00 0.565E+01   0.190E-01 -.845E-02 0.431E-02
   0.681E+02 -.117E+03 -.387E+02   -.569E+02 0.117E+03 0.318E+02   -.113E+02 -.270E+00 0.688E+01   0.177E-01 -.443E-02 -.106E-01
   0.580E+02 -.107E+03 -.444E+02   -.456E+02 0.106E+03 0.387E+02   -.124E+02 0.414E+00 0.565E+01   -.156E-01 0.904E-02 0.165E-01
   0.681E+02 -.117E+03 -.387E+02   -.568E+02 0.117E+03 0.318E+02   -.113E+02 -.261E+00 0.689E+01   -.232E-01 0.114E-01 -.491E-02
   0.189E+03 0.102E+03 0.297E+02   -.181E+03 -.914E+02 -.214E+02   -.736E+01 -.110E+02 -.824E+01   0.228E-01 0.883E-02 0.151E-01
   0.196E+03 0.112E+03 0.759E+02   -.190E+03 -.103E+03 -.714E+02   -.541E+01 -.945E+01 -.447E+01   0.145E-01 0.536E-02 -.141E-01
   0.188E+03 0.102E+03 0.298E+02   -.181E+03 -.914E+02 -.215E+02   -.736E+01 -.111E+02 -.824E+01   -.984E-02 -.104E-01 0.287E-01
   0.196E+03 0.112E+03 0.759E+02   -.190E+03 -.103E+03 -.715E+02   -.541E+01 -.945E+01 -.447E+01   -.279E-01 -.130E-01 -.201E-01
   -.178E+03 -.976E+02 -.765E+02   0.170E+03 0.855E+02 0.720E+02   0.783E+01 0.121E+02 0.454E+01   -.212E-01 -.691E-02 -.375E-02
   -.196E+03 -.112E+03 -.598E+02   0.190E+03 0.102E+03 0.548E+02   0.565E+01 0.101E+02 0.501E+01   -.165E-01 0.254E-02 -.756E-02
   -.178E+03 -.976E+02 -.770E+02   0.170E+03 0.855E+02 0.725E+02   0.786E+01 0.121E+02 0.451E+01   0.940E-02 -.116E-01 0.151E-01
   -.196E+03 -.112E+03 -.599E+02   0.190E+03 0.102E+03 0.549E+02   0.564E+01 0.101E+02 0.501E+01   0.296E-01 0.991E-02 0.555E-02
   -.197E+03 0.114E+03 -.744E+02   0.191E+03 -.104E+03 0.700E+02   0.549E+01 -.938E+01 0.443E+01   -.166E-01 0.100E-01 0.213E-01
   -.190E+03 0.105E+03 -.278E+02   0.182E+03 -.941E+02 0.196E+02   0.731E+01 -.108E+02 0.827E+01   -.195E-01 0.367E-02 -.216E-01
   -.197E+03 0.113E+03 -.745E+02   0.191E+03 -.104E+03 0.701E+02   0.552E+01 -.939E+01 0.443E+01   0.236E-01 -.609E-02 0.270E-01
   -.190E+03 0.105E+03 -.278E+02   0.182E+03 -.940E+02 0.195E+02   0.730E+01 -.108E+02 0.828E+01   0.131E-01 -.156E-01 -.351E-01
   0.178E+03 -.987E+02 0.747E+02   -.170E+03 0.868E+02 -.701E+02   -.788E+01 0.120E+02 -.459E+01   0.201E-01 -.865E-02 -.953E-02
   0.195E+03 -.114E+03 0.623E+02   -.189E+03 0.104E+03 -.575E+02   -.585E+01 0.980E+01 -.481E+01   0.190E-01 0.310E-02 0.216E-01
   0.178E+03 -.987E+02 0.747E+02   -.170E+03 0.867E+02 -.701E+02   -.788E+01 0.120E+02 -.458E+01   -.145E-01 -.117E-01 -.310E-01
   0.195E+03 -.114E+03 0.625E+02   -.190E+03 0.104E+03 -.577E+02   -.584E+01 0.981E+01 -.480E+01   -.253E-01 0.105E-01 0.100E-01
   0.141E+01 0.483E+02 0.194E+01   -.139E+01 -.480E+02 -.187E+01   -.348E-01 -.239E+00 -.898E-01   0.165E-01 0.195E-03 0.174E-01
   -.150E+01 0.478E+02 -.126E+01   0.145E+01 -.476E+02 0.120E+01   0.451E-01 -.217E+00 0.778E-01   0.167E-01 0.112E-02 -.153E-01
   0.143E+01 0.483E+02 0.203E+01   -.138E+01 -.480E+02 -.195E+01   -.348E-01 -.236E+00 -.932E-01   -.159E-01 0.775E-03 0.172E-01
   -.151E+01 0.478E+02 -.123E+01   0.149E+01 -.476E+02 0.117E+01   0.458E-01 -.217E+00 0.775E-01   -.175E-01 -.101E-02 -.187E-01
   -.432E-01 -.348E+02 0.250E-02   0.291E-01 0.348E+02 0.214E-01   0.417E-02 -.120E-01 -.126E-01   0.147E-01 -.298E-03 -.645E-02
   0.846E-01 -.430E+02 -.233E-01   -.107E+00 0.431E+02 0.173E-01   0.783E-02 -.946E-01 0.426E-02   0.205E-01 0.127E-02 0.581E-02
   0.181E+00 -.350E+02 -.788E-01   -.162E+00 0.350E+02 0.101E+00   0.272E-02 -.746E-02 -.129E-01   -.149E-01 0.518E-03 -.509E-02
   0.856E-01 -.430E+02 0.245E-01   -.676E-01 0.431E+02 -.292E-01   0.917E-02 -.947E-01 0.368E-02   -.201E-01 0.139E-02 0.501E-02
   -.135E+00 0.227E+03 -.157E+01   0.120E+00 -.229E+03 0.159E+01   0.192E-01 0.160E+01 -.922E-03   0.260E-02 0.113E-01 -.151E-01
   -.506E+00 0.227E+03 -.154E+01   0.491E+00 -.228E+03 0.157E+01   0.228E-01 0.161E+01 -.355E-02   -.229E-02 -.141E-01 -.163E-01
 -----------------------------------------------------------------------------------------------
   -.541E+00 0.160E+01 -.203E-01   -.235E-12 -.341E-12 -.730E-12   0.816E+00 -.168E+01 0.203E+00   0.803E-03 -.126E-01 0.178E-02
 
 
 POSITION                                       TOTAL-FORCE (eV/Angst)
 -----------------------------------------------------------------------------------
      2.28515      3.69446      1.20827        -0.000409     -0.000820      0.000359
      6.85530      3.69858      1.18319         0.000112      0.000567     -0.000607
      6.81253      3.69573      6.16902         0.000651     -0.000024      0.000740
      6.80032      1.96013      8.62514         0.000103     -0.001394      0.000342
      2.22984      1.95626      8.65015        -0.000429     -0.001809      0.000351
      2.24202      3.69200      6.19399         0.000761     -0.001292      0.000106
      0.95777      0.63353      4.60735        -0.000759      0.006052      0.004666
      0.96344      0.61965      9.51682         0.000402     -0.004111      0.000744
      5.52819      0.63726      4.58246         0.001357     -0.002657     -0.003074
      5.53396      0.62341      9.49197         0.003482      0.002820     -0.004050
      3.54655      5.01292      0.33892         0.000425     -0.000516      0.002976
      3.48516      5.05189      5.28673         0.000938     -0.000230      0.002158
      8.11704      5.01669      0.31402        -0.005728     -0.004981      0.001405
      8.05590      5.05566      5.26174         0.002612      0.001102      0.001316
      3.56466      0.63818      2.78933        -0.004166      0.006926      0.000995
      3.49028      0.61386      7.77664        -0.002764      0.002631     -0.000322
      8.13542      0.64222      2.76473         0.004764      0.000878     -0.003182
      8.06078      0.61762      7.75175        -0.002417      0.003843     -0.002684
      1.04850      5.05045      2.11203         0.000148      0.001482     -0.000383
      0.98545      5.00842      7.05869        -0.003116     -0.002947     -0.000521
      5.61851      5.05431      2.08739        -0.000684      0.003620     -0.000308
      5.55595      5.01219      7.03377         0.000566      0.001899      0.003483
      1.16003      2.19640      1.94300         0.004747     -0.001909      0.002407
      1.18465      2.12208      7.00683        -0.000039      0.000302      0.000534
      5.73047      2.20004      1.91813         0.003266     -0.005278     -0.005794
      5.75514      2.12578      6.98190        -0.001187     -0.002445     -0.001518
      3.35458      3.56512      2.86851         0.000803      0.003449     -0.004353
      3.30890      3.50923      7.85635        -0.002666      0.000229      0.003208
      7.92344      3.57125      2.84287        -0.002050      0.003726      0.002763
      7.87925      3.51298      7.83103        -0.001314      0.002031      0.004884
      3.33488      2.12769      0.39869        -0.006135     -0.005518     -0.003514
      3.35859      2.20038      5.45764         0.000552      0.000698     -0.001233
      7.90564      2.13120      0.37376         0.000129     -0.002573      0.002160
      7.92941      2.20420      5.43222         0.002607     -0.001171     -0.002425
      1.17435      3.56262      4.53051        -0.001883      0.004527      0.002805
      1.16570      3.51943      9.44372        -0.002482     -0.004108     -0.000053
      5.74517      3.56652      4.50569         0.003938     -0.001122     -0.000553
      5.73628      3.52318      9.41896         0.005516      0.000040     -0.002906
     -0.00036      0.98900      1.22709        -0.001546     -0.000823     -0.000296
      9.09572      0.99671      6.14529        -0.001544     -0.000860     -0.000300
      4.56999      0.99282      1.20227        -0.000047     -0.000778     -0.000366
      4.52521      0.99291      6.17014         0.001193     -0.000326      0.000819
      9.11892      4.68721      3.66208        -0.000981      0.000132      0.001025
      9.08661      4.67229      8.61069        -0.000193     -0.000991      0.000246
      4.54841      4.68319      3.68709         0.001438      0.000025     -0.000169
      4.51612      4.66868      8.63564         0.001253     -0.000832      0.000122
      2.26032      1.90975      3.69865         0.000729      0.001226     -0.001145
      6.83091      1.91349      3.67349         0.000045      0.001305     -0.000863
 -----------------------------------------------------------------------------------
    total drift:                                0.275611     -0.090396      0.184904


--------------------------------------------------------------------------------------------------------



  FREE ENERGIE OF THE ION-ELECTRON SYSTEM (eV)
  ---------------------------------------------------
  free  energy   TOTEN  =      -377.23856688 eV

  energy  without entropy=     -377.23856688  energy(sigma->0) =     -377.23856688
 


--------------------------------------------------------------------------------------------------------


    POTLOK:  cpu time    0.0176: real time    0.0176


--------------------------------------------------------------------------------------------------------


 writing wavefunctions
     LOOP+:  cpu time  951.3713: real time  951.6537
    4ORBIT:  cpu time    0.0000: real time    0.0000
 


 total charge     
 
# of ion       s       p       d       tot
------------------------------------------
    1        0.212   6.198   7.865  14.276
    2        0.212   6.198   7.867  14.278
    3        0.212   6.197   7.868  14.277
    4        0.214   6.200   7.876  14.289
    5        0.214   6.200   7.875  14.289
    6        0.212   6.197   7.867  14.276
    7        1.572   3.475   0.000   5.047
    8        1.571   3.461   0.000   5.032
    9        1.572   3.475   0.000   5.047
   10        1.571   3.461   0.000   5.032
   11        1.571   3.459   0.000   5.031
   12        1.571   3.452   0.000   5.023
   13        1.571   3.459   0.000   5.030
   14        1.571   3.453   0.000   5.023
   15        1.572   3.476   0.000   5.048
   16        1.572   3.461   0.000   5.032
   17        1.572   3.476   0.000   5.048
   18        1.572   3.461   0.000   5.032
   19        1.571   3.453   0.000   5.023
   20        1.571   3.460   0.000   5.031
   21        1.571   3.453   0.000   5.023
   22        1.571   3.460   0.000   5.031
   23        1.578   3.441   0.000   5.019
   24        1.574   3.442   0.000   5.016
   25        1.578   3.441   0.000   5.019
   26        1.574   3.442   0.000   5.016
   27        1.577   3.440   0.000   5.017
   28        1.575   3.441   0.000   5.016
   29        1.577   3.440   0.000   5.017
   30        1.575   3.441   0.000   5.016
   31        1.574   3.443   0.000   5.017
   32        1.578   3.441   0.000   5.019
   33        1.574   3.443   0.000   5.017
   34        1.578   3.441   0.000   5.019
   35        1.577   3.440   0.000   5.017
   36        1.575   3.442   0.000   5.017
   37        1.577   3.440   0.000   5.017
   38        1.575   3.442   0.000   5.017
   39        0.699   1.007   4.147   5.853
   40        0.697   1.004   4.143   5.845
   41        0.699   1.007   4.147   5.853
   42        0.697   1.004   4.143   5.845
   43        0.694   1.004   4.136   5.835
   44        0.693   1.004   4.129   5.826
   45        0.694   1.004   4.136   5.835
   46        0.693   1.004   4.129   5.826
   47        0.176   6.137   8.893  15.206
   48        0.176   6.137   8.893  15.206
--------------------------------------------------
tot         57.552 167.957  98.114 323.623
 
 BZINTS: Fermi energy:  4.341795;370.000000 electrons
         Band energy:***********;  BLOECHL correction: -0.010889

 total amount of memory used by VASP MPI-rank0   142498. kBytes
=======================================================================

   base      :      30000. kBytes
   nonlr-proj:       4224. kBytes
   fftplans  :       1587. kBytes
   grid      :       2924. kBytes
   one-center:        186. kBytes
   wavefun   :     103577. kBytes
 
  
  
 General timing and accounting informations for this job:
 ========================================================
  
                  Total CPU time used (sec):      974.235
                            User time (sec):      965.781
                          System time (sec):        8.454
                         Elapsed time (sec):      974.532
  
                   Maximum memory used (kb):      257540.
                   Average memory used (kb):           0.
  
                          Minor page faults:        81706
                          Major page faults:            0
                 Voluntary context switches:          595
